id,structure_json,formula,spacegroup,bandgap,energy_above_hull,k_1064,k_755,k_1500
mp-3637,"{""@module"": ""pymatgen.core.structure"", ""@class"": ""Structure"", ""charge"": 0, ""lattice"": {""matrix"": [[3.64466293, 0.00437432, 5.58269104], [1.66427301, 3.24249614, 5.58269104], [0.00715236, 0.00437432, 6.66708053]], ""pbc"": [true, true, true], ""a"": 6.667085289396554, ""b"": 6.667085204032242, ""c"": 6.667085801490342, ""alpha"": 33.07705835161205, ""beta"": 33.07705975992625, ""gamma"": 33.077053542010574, ""volume"": 78.5640656927165}, ""properties"": {}, ""sites"": [{""species"": [{""element"": ""Y"", ""occu"": 1}], ""abc"": [0.74157135, 0.74157135, 0.74157135], ""properties"": {""magmom"": 0.0}, ""label"": ""Y"", ""xyz"": [3.942258777350205, 2.411029980685053, 13.224043371522223]}, {""species"": [{""element"": ""Y"", ""occu"": 1}], ""abc"": [0.25842865, 0.25842865, 0.25842865], ""properties"": {""magmom"": 0.0}, ""label"": ""Y"", ""xyz"": [1.373829522649795, 0.840214799314947, 4.608419238477776]}, {""species"": [{""element"": ""O"", ""occu"": 1}], ""abc"": [0.62116735, 0.62116735, 0.62116735], ""properties"": {""magmom"": -0.0}, ""label"": ""O"", ""xyz"": [3.3021804816770053, 2.0195671041939334, 11.076943543427785]}, {""species"": [{""element"": ""O"", ""occu"": 1}], ""abc"": [0.37883265, 0.37883265, 0.37883265], ""properties"": {""magmom"": -0.0}, ""label"": ""O"", ""xyz"": [2.013907818322995, 1.2316776758060672, 6.755519066572216]}, {""species"": [{""element"": ""F"", ""occu"": 1}], ""abc"": [0.13052214, 0.13052214, 0.13052214], ""properties"": {""magmom"": -0.0}, ""label"": ""F"", ""xyz"": [0.693867221344962, 0.42435942634942925, 2.3275311813271857]}, {""species"": [{""element"": ""F"", ""occu"": 1}], ""abc"": [0.86947786, 0.86947786, 0.86947786], ""properties"": {""magmom"": -0.0}, ""label"": ""F"", ""xyz"": [4.622221078655039, 2.826885353650571, 15.504931428672815]}]}",YOF,166,5.0135000000000005,0.0,0.0018589188839364,0.0026944004839225,0.0013012827765345
mp-3277,"{""@module"": ""pymatgen.core.structure"", ""@class"": ""Structure"", ""charge"": 0, ""lattice"": {""matrix"": [[3.93882457, 0.00026896, -2.15929488], [-1.18382839, 3.756890819999999, -2.15898666], [-0.00822283, -0.01159641, 4.65710214]], ""pbc"": [true, true, true], ""a"": 4.491869704740931, ""b"": 4.491870622405348, ""c"": 4.657123837096312, ""alpha"": 118.83298892003496, ""beta"": 118.83297907208413, ""gamma"": 89.99998027823167, ""volume"": 68.72108264027757}, ""properties"": {}, ""sites"": [{""species"": [{""element"": ""B"", ""occu"": 1}], ""abc"": [0.25, 0.75, 0.5], ""properties"": {""magmom"": -0.0}, ""label"": ""B"", ""xyz"": [0.09272343500000002, 2.811937149999999, 0.16948735499999978]}, {""species"": [{""element"": ""As"", ""occu"": 1}], ""abc"": [-0.0, -0.0, -0.0], ""properties"": {""magmom"": -0.0}, ""label"": ""As"", ""xyz"": [0.0, 0.0, 0.0]}, {""species"": [{""element"": ""O"", ""occu"": 1}], ""abc"": [0.14392095, 0.7083299, 0.7349697900000001], ""properties"": {""magmom"": 0.0}, ""label"": ""O"", ""xyz"": [-0.27770520274642513, 2.652633796797775, 1.5827868064054809]}, {""species"": [{""element"": ""O"", ""occu"": 1}], ""abc"": [0.2916701, 0.40894916000000003, 0.26503021], ""properties"": {""magmom"": 0.0}, ""label"": ""O"", ""xyz"": [0.6625324321780103, 1.5333823936632607, -0.27844477648164423]}, {""species"": [{""element"": ""O"", ""occu"": 1}], ""abc"": [0.59105084, 0.02664188, 0.7349697900000001], ""properties"": {""magmom"": 0.0}, ""label"": ""O"", ""xyz"": [2.2904626251658597, 0.09172659241101407, 2.089056865695331]}, {""species"": [{""element"": ""O"", ""occu"": 1}], ""abc"": [0.97335812, 0.8560790500000001, 0.26503021], ""properties"": {""magmom"": 0.0}, ""label"": ""O"", ""xyz"": [2.8182568966290846, 3.2133839195617293, -2.7157576956222496]}]}",BAsO4,82,4.2734,0.0,0.0021390190407487,0.0032352241990991,0.0014702437482295
mp-8399,"{""@module"": ""pymatgen.core.structure"", ""@class"": ""Structure"", ""charge"": 0, ""lattice"": {""matrix"": [[4.48681068, -0.0, 0.0], [-0.0, 4.48681068, -0.0], [-0.0, -0.0, 4.48681068]], ""pbc"": [true, true, true], ""a"": 4.48681068, ""b"": 4.48681068, ""c"": 4.48681068, ""alpha"": 90.0, ""beta"": 90.0, ""gamma"": 90.0, ""volume"": 90.32609495079795}, ""properties"": {}, ""sites"": [{""species"": [{""element"": ""Cs"", ""occu"": 1}], ""abc"": [-0.0, -0.0, -0.0], ""properties"": {""magmom"": 0.0}, ""label"": ""Cs"", ""xyz"": [0.0, 0.0, 0.0]}, {""species"": [{""element"": ""Cd"", ""occu"": 1}], ""abc"": [0.5, 0.5, 0.5], ""properties"": {""magmom"": 0.0}, ""label"": ""Cd"", ""xyz"": [2.24340534, 2.24340534, 2.24340534]}, {""species"": [{""element"": ""F"", ""occu"": 1}], ""abc"": [-0.0, 0.5, 0.5], ""properties"": {""magmom"": -0.0}, ""label"": ""F"", ""xyz"": [0.0, 2.24340534, 2.24340534]}, {""species"": [{""element"": ""F"", ""occu"": 1}], ""abc"": [0.5, 0.0, 0.5], ""properties"": {""magmom"": -0.0}, ""label"": ""F"", ""xyz"": [2.24340534, 0.0, 2.24340534]}, {""species"": [{""element"": ""F"", ""occu"": 1}], ""abc"": [0.5, 0.5, -0.0], ""properties"": {""magmom"": -0.0}, ""label"": ""F"", ""xyz"": [2.24340534, 2.24340534, 0.0]}]}",CsCdF3,221,3.2929,0.0,0.0013760240557187,0.0020389323041089,0.0009503122273504
mp-23861,"{""@module"": ""pymatgen.core.structure"", ""@class"": ""Structure"", ""charge"": 0, ""lattice"": {""matrix"": [[4.42149759, 0.0, -0.0], [0.0, 4.42149759, 0.0], [-0.0, 0.0, 7.26851667]], ""pbc"": [true, true, true], ""a"": 4.42149759, ""b"": 4.42149759, ""c"": 7.26851667, ""alpha"": 90.0, ""beta"": 90.0, ""gamma"": 90.0, ""volume"": 142.09689105309906}, ""properties"": {}, ""sites"": [{""species"": [{""element"": ""Ba"", ""occu"": 1}], ""abc"": [0.75, 0.75, 0.79181555], ""properties"": {""magmom"": 0.0}, ""label"": ""Ba"", ""xyz"": [3.3161231925, 3.3161231925, 5.755324524740219]}, {""species"": [{""element"": ""Ba"", ""occu"": 1}], ""abc"": [0.25, 0.25, 0.20818445], ""properties"": {""magmom"": 0.0}, ""label"": ""Ba"", ""xyz"": [1.1053743975, 1.1053743975, 1.5131921452597816]}, {""species"": [{""element"": ""H"", ""occu"": 1}], ""abc"": [0.25, 0.75, 0.0], ""properties"": {""magmom"": 0.0}, ""label"": ""H"", ""xyz"": [1.1053743975, 3.3161231925, 0.0]}, {""species"": [{""element"": ""H"", ""occu"": 1}], ""abc"": [0.75, 0.25, -0.0], ""properties"": {""magmom"": 0.0}, ""label"": ""H"", ""xyz"": [3.3161231925, 1.1053743975, 0.0]}, {""species"": [{""element"": ""Cl"", ""occu"": 1}], ""abc"": [0.25, 0.25, 0.65365116], ""properties"": {""magmom"": -0.0}, ""label"": ""Cl"", ""xyz"": [1.1053743975, 1.1053743975, 4.751074352824838]}, {""species"": [{""element"": ""Cl"", ""occu"": 1}], ""abc"": [0.75, 0.75, 0.34634884], ""properties"": {""magmom"": -0.0}, ""label"": ""Cl"", ""xyz"": [3.3161231925, 3.3161231925, 2.517442317175163]}]}",BaHCl,129,3.497,0.0,0.0033460448791625,0.0051385080637514,0.0022644885459664
mp-754027,"{""@module"": ""pymatgen.core.structure"", ""@class"": ""Structure"", ""charge"": 0, ""lattice"": {""matrix"": [[0.00051903, 4.68580443, -0.00102794], [4.6858045, 0.00051903, -0.00102793], [2.34433356, 2.34433354, -5.34358494]], ""pbc"": [true, true, true], ""a"": 4.685804571496811, ""b"": 4.685804641494615, ""c"": 6.288537158855469, ""alpha"": 68.09786064532973, ""beta"": 68.09786072952302, ""gamma"": 89.98730434134931, ""volume"": 117.30524783327502}, ""properties"": {}, ""sites"": [{""species"": [{""element"": ""Na"", ""occu"": 1}], ""abc"": [0.49989109000000004, 0.50010891, 1.00000001], ""properties"": {""magmom"": 0.0}, ""label"": ""Na"", ""xyz"": [4.688005622883873, 4.686985019010422, -5.34461292843476]}, {""species"": [{""element"": ""Na"", ""occu"": 1}], ""abc"": [0.25010891, 0.749891099999999, 0.49999999], ""properties"": {""magmom"": -0.0}, ""label"": ""Na"", ""xyz"": [4.686139661474167, 2.344517400994769, -2.672820349075519]}, {""species"": [{""element"": ""Sm"", ""occu"": 1}], ""abc"": [-2.2380000000000003e-05, 1.00002234, 1.00000002], ""properties"": {""magmom"": -0.0}, ""label"": ""Sm"", ""xyz"": [7.030242776143309, 2.3447477601786577, -5.3446129768303585]}, {""species"": [{""element"": ""Sm"", ""occu"": 1}], ""abc"": [0.75002238, 0.2499776, 0.49999998], ""properties"": {""magmom"": -0.0}, ""label"": ""Sm"", ""xyz"": [2.34390218020842, 4.686754659790201, -2.6728203006079667]}, {""species"": [{""element"": ""O"", ""occu"": 1}], ""abc"": [0.22084778, 0.22082796000000002, 0.55830479], ""properties"": {""magmom"": -0.0}, ""label"": ""O"", ""xyz"": [2.3437239312228257, 2.343816766955401, -2.983803081725759]}, {""species"": [{""element"": ""O"", ""occu"": 1}], ""abc"": [0.5291522200000001, 0.02917204, 0.94169521], ""properties"": {""magmom"": -0.0}, ""label"": ""O"", ""xyz"": [2.344616806277174, 4.6871666230446, -5.0326022657742415]}, {""species"": [{""element"": ""O"", ""occu"": 1}], ""abc"": [0.97082793, 0.47084779, 0.05830482], ""properties"": {""magmom"": 0.0}, ""label"": ""O"", ""xyz"": [2.343490528253322, 4.686040144359836, -0.3130387095125497]}, {""species"": [{""element"": ""O"", ""occu"": 1}], ""abc"": [0.77917206, 0.77915225, 0.44169518], ""properties"": {""magmom"": 0.0}, ""label"": ""O"", ""xyz"": [4.6868403666736675, 4.686933118802881, -2.3618375680182884]}]}",NaSmO2,141,3.6182,0.0,0.0033030073762327,0.0049607684044742,0.0022456518435621
mp-999470,"{""@module"": ""pymatgen.core.structure"", ""@class"": ""Structure"", ""charge"": 0, ""lattice"": {""matrix"": [[-2.06099339, -3.56974706, 0.0], [-4.1219888, 1e-08, 0.0], [-2.06099339, -1.18991602, -6.61564227]], ""pbc"": [true, true, true], ""a"": 4.121988334044911, ""b"": 4.1219888, ""c"": 7.0306697072815965, ""alpha"": 72.9537679756528, ""beta"": 72.9537632826688, ""gamma"": 60.00001261050302, ""volume"": 97.34558649291397}, ""properties"": {}, ""sites"": [{""species"": [{""element"": ""Na"", ""occu"": 1}], ""abc"": [0.5, 0.5, 0.5], ""properties"": {""magmom"": 0.0}, ""label"": ""Na"", ""xyz"": [-4.12198779, -2.379831535, -3.307821135]}, {""species"": [{""element"": ""Nd"", ""occu"": 1}], ""abc"": [-0.0, 0.0, -0.0], ""properties"": {""magmom"": 0.0}, ""label"": ""Nd"", ""xyz"": [0.0, 0.0, 0.0]}, {""species"": [{""element"": ""S"", ""occu"": 1}], ""abc"": [0.7453699500000001, 0.7453699500000001, 0.76388714], ""properties"": {""magmom"": -0.0}, ""label"": ""S"", ""xyz"": [-6.182975472057195, -3.569743725529131, -5.053604052893408]}, {""species"": [{""element"": ""S"", ""occu"": 1}], ""abc"": [0.25463005, 0.25463005, 0.23611286], ""properties"": {""magmom"": -0.0}, ""label"": ""S"", ""xyz"": [-2.061000107942805, -1.1899193444708698, -1.5620382171065923]}]}",NaNdS2,166,2.2113,0.0,0.0117811054073157,0.0205687236695103,0.0076594247462583
mp-1178160,"{""@module"": ""pymatgen.core.structure"", ""@class"": ""Structure"", ""charge"": 0, ""lattice"": {""matrix"": [[3.8066852, 0.0, 0.0], [0.0, 3.8066852, 0.0], [0.0, 0.0, 8.76174393]], ""pbc"": [true, true, true], ""a"": 3.8066852, ""b"": 3.8066852, ""c"": 8.76174393, ""alpha"": 90.0, ""beta"": 90.0, ""gamma"": 90.0, ""volume"": 126.96513640813347}, ""properties"": {}, ""sites"": [{""species"": [{""element"": ""Ho"", ""occu"": 1}], ""abc"": [0.5, 0.0, 0.12772919], ""properties"": {""magmom"": 0.0}, ""label"": ""Ho"", ""xyz"": [1.9033426, 0.0, 1.1191304551663166]}, {""species"": [{""element"": ""Ho"", ""occu"": 1}], ""abc"": [0.0, 0.5, 0.8722708100000001], ""properties"": {""magmom"": 0.0}, ""label"": ""Ho"", ""xyz"": [0.0, 1.9033426, 7.642613474833683]}, {""species"": [{""element"": ""Br"", ""occu"": 1}], ""abc"": [0.5, 0.0, 0.68354225], ""properties"": {""magmom"": -0.0}, ""label"": ""Br"", ""xyz"": [1.9033426, 0.0, 5.9890221598360425]}, {""species"": [{""element"": ""Br"", ""occu"": 1}], ""abc"": [0.0, 0.5, 0.31645775], ""properties"": {""magmom"": -0.0}, ""label"": ""Br"", ""xyz"": [0.0, 1.9033426, 2.7727217701639573]}, {""species"": [{""element"": ""O"", ""occu"": 1}], ""abc"": [0.5, 0.5, 0.0], ""properties"": {""magmom"": 0.0}, ""label"": ""O"", ""xyz"": [1.9033426, 1.9033426, 0.0]}, {""species"": [{""element"": ""O"", ""occu"": 1}], ""abc"": [0.0, 0.0, 0.0], ""properties"": {""magmom"": 0.0}, ""label"": ""O"", ""xyz"": [0.0, 0.0, 0.0]}]}",HoBrO,129,4.5124,0.0,0.0031204079211301,0.0046858093744974,0.0021615096476884
mp-1207092,"{""@module"": ""pymatgen.core.structure"", ""@class"": ""Structure"", ""charge"": 0, ""lattice"": {""matrix"": [[1.94325869, -3.3658239, 0.0], [1.94325869, 3.3658239, -0.0], [0.0, 0.0, 3.95069284]], ""pbc"": [true, true, true], ""a"": 3.8865183470648543, ""b"": 3.8865183470648543, ""c"": 3.95069284, ""alpha"": 90.0, ""beta"": 90.0, ""gamma"": 120.00001646216158, ""volume"": 51.68032895802392}, ""properties"": {}, ""sites"": [{""species"": [{""element"": ""Gd"", ""occu"": 1}], ""abc"": [0.0, 0.0, -0.0], ""properties"": {""magmom"": 6.906}, ""label"": ""Gd"", ""xyz"": [0.0, 0.0, 0.0]}, {""species"": [{""element"": ""H"", ""occu"": 1}], ""abc"": [0.333333, 0.666667, 0.0], ""properties"": {""magmom"": -0.018000000000000002}, ""label"": ""H"", ""xyz"": [1.94325869, 1.1219435438826, 0.0]}, {""species"": [{""element"": ""Se"", ""occu"": 1}], ""abc"": [0.666667, 0.333333, 0.5], ""properties"": {""magmom"": -0.051000000000000004}, ""label"": ""Se"", ""xyz"": [1.94325869, -1.1219435438826, 1.97534642]}]}",GdHSe,187,0.5622999999999996,0.0,0.0337375298352868,0.1402479137700212,0.0170234343175489
mp-1018766,"{""@module"": ""pymatgen.core.structure"", ""@class"": ""Structure"", ""charge"": 0, ""lattice"": {""matrix"": [[4.34427325, 0.00011568, 1.9750000000000002e-05], [-2.17203632, 3.76211187, -3.74e-06], [3.3660000000000006e-05, 1.284e-05, 7.0426142]], ""pbc"": [true, true, true], ""a"": 4.344273251585066, ""b"": 4.344102611335053, ""c"": 7.042614200092144, ""alpha"": 90.0000957830083, ""beta"": 89.99946567453118, ""gamma"": 119.99824609151375, ""volume"": 115.10373448224671}, ""properties"": {}, ""sites"": [{""species"": [{""element"": ""Li"", ""occu"": 1}], ""abc"": [-0.0, -0.0, 0.5], ""properties"": {""magmom"": 0.0}, ""label"": ""Li"", ""xyz"": [1.6830000000000003e-05, 6.42e-06, 3.5213071]}, {""species"": [{""element"": ""Li"", ""occu"": 1}], ""abc"": [0.66660838, 0.33330415, 0.63945158], ""properties"": {""magmom"": 0.0}, ""label"": ""Li"", ""xyz"": [2.1720017579932893, 1.2540128228509464, 4.50342269647842]}, {""species"": [{""element"": ""Li"", ""occu"": 1}], ""abc"": [0.33339162, 0.66669585, 0.36054842], ""properties"": {""magmom"": 0.0}, ""label"": ""Li"", ""xyz"": [0.0002688320067100154, 2.5082275671490537, 2.5392075135215797]}, {""species"": [{""element"": ""La"", ""occu"": 1}], ""abc"": [-0.0, -0.0, -0.0], ""properties"": {""magmom"": -0.0}, ""label"": ""La"", ""xyz"": [0.0, 0.0, 0.0]}, {""species"": [{""element"": ""As"", ""occu"": 1}], ""abc"": [0.66669307, 0.33334787, 0.26103068], ""properties"": {""magmom"": 0.0}, ""label"": ""As"", ""xyz"": [2.1722619754194277, 1.2541724532544856, 1.8383502940707548]}, {""species"": [{""element"": ""As"", ""occu"": 1}], ""abc"": [0.33330693, 0.66665213, 0.73896932], ""properties"": {""magmom"": 0.0}, ""label"": ""As"", ""xyz"": [8.6145805717848e-06, 2.5080679367455145, 5.204279915929246]}]}",Li3LaAs2,164,0.5621,0.0,0.6737523521907733,1.2663998500637892,0.1842469618899855
mp-568968,"{""@module"": ""pymatgen.core.structure"", ""@class"": ""Structure"", ""charge"": 0, ""lattice"": {""matrix"": [[-4.118846, 4.118846, 3.569253], [4.118846, -4.118846, 3.569253], [4.118846, 4.118846, -3.569253]], ""pbc"": [true, true, true], ""a"": 6.831497033699201, ""b"": 6.831497033699201, ""c"": 6.831497033699201, ""alpha"": 105.84137454611064, ""beta"": 105.84137454611064, ""gamma"": 117.00382429633981, ""volume"": 242.20797196969772}, ""properties"": {}, ""sites"": [{""species"": [{""element"": ""K"", ""occu"": 1}], ""abc"": [0.5, 0.0, 0.5], ""properties"": {""magmom"": 0.0}, ""label"": ""K"", ""xyz"": [0.0, 4.118846, 0.0]}, {""species"": [{""element"": ""K"", ""occu"": 1}], ""abc"": [0.0, 0.5, 0.5], ""properties"": {""magmom"": 0.0}, ""label"": ""K"", ""xyz"": [4.118846, 0.0, 0.0]}, {""species"": [{""element"": ""Sn"", ""occu"": 1}], ""abc"": [0.5, 0.5, 0.0], ""properties"": {""magmom"": 0.0}, ""label"": ""Sn"", ""xyz"": [0.0, 0.0, 3.569253]}, {""species"": [{""element"": ""Hg"", ""occu"": 1}], ""abc"": [0.0, 0.0, 0.0], ""properties"": {""magmom"": 0.0}, ""label"": ""Hg"", ""xyz"": [0.0, 0.0, 0.0]}, {""species"": [{""element"": ""Se"", ""occu"": 1}], ""abc"": [0.9018200000000001, 0.559371, 0.0], ""properties"": {""magmom"": 0.0}, ""label"": ""Se"", ""xyz"": [-1.4104946938540004, 1.4104946938540004, 5.215360360322999]}, {""species"": [{""element"": ""Se"", ""occu"": 1}], ""abc"": [0.559371, 0.9018200000000001, 0.0], ""properties"": {""magmom"": 0.0}, ""label"": ""Se"", ""xyz"": [1.4104946938540004, -1.4104946938540004, 5.215360360322999]}, {""species"": [{""element"": ""Se"", ""occu"": 1}], ""abc"": [0.09818, 0.09818, 0.657552], ""properties"": {""magmom"": 0.0}, ""label"": ""Se"", ""xyz"": [2.708355424992, 2.708355424992, -1.646110929576]}, {""species"": [{""element"": ""Se"", ""occu"": 1}], ""abc"": [0.440629, 0.440629, 0.342448], ""properties"": {""magmom"": 0.0}, ""label"": ""Se"", ""xyz"": [1.4104905750079997, 1.4104905750079997, 1.92314920893]}]}",K2SnHgSe4,121,1.4815,0.0,0.0345708873099796,0.1286912972895265,0.0187505108670653
mp-441,"{""@module"": ""pymatgen.core.structure"", ""@class"": ""Structure"", ""charge"": 0, ""lattice"": {""matrix"": [[5.2432604, 0.0, 3.02719774], [1.747753809999999, 4.9433934, 3.02719774], [-1e-08, -0.0, 6.05439651]], ""pbc"": [true, true, true], ""a"": 6.054395575056957, ""b"": 6.054395745621042, ""c"": 6.05439651, ""alpha"": 60.000001482833234, ""beta"": 60.00000061400291, ""gamma"": 59.99999802903027, ""volume"": 156.9269235634012}, ""properties"": {}, ""sites"": [{""species"": [{""element"": ""Rb"", ""occu"": 1}], ""abc"": [0.25, 0.25, 0.25], ""properties"": {""magmom"": 0.0}, ""label"": ""Rb"", ""xyz"": [1.7477535499999997, 1.23584835, 3.0271979975]}, {""species"": [{""element"": ""Rb"", ""occu"": 1}], ""abc"": [0.75, 0.75, 0.75], ""properties"": {""magmom"": 0.0}, ""label"": ""Rb"", ""xyz"": [5.243260649999999, 3.70754505, 9.0815939925]}, {""species"": [{""element"": ""Te"", ""occu"": 1}], ""abc"": [-0.0, -0.0, 0.0], ""properties"": {""magmom"": 0.0}, ""label"": ""Te"", ""xyz"": [0.0, 0.0, 0.0]}]}",Rb2Te,225,1.8851,0.0,0.0117442104458238,0.023324578993752,0.0073556739272685