id,structure_json,formula,spacegroup,bandgap,energy_above_hull,k_1064,k_755,k_1500
mp-1205991,"{""@module"": ""pymatgen.core.structure"", ""@class"": ""Structure"", ""charge"": 0, ""lattice"": {""matrix"": [[3.988896999999999, 0.0, 0.0], [0.0, 3.988896999999999, 0.0], [0.0, 0.0, 9.333185]], ""pbc"": [true, true, true], ""a"": 3.988896999999999, ""b"": 3.988896999999999, ""c"": 9.333185, ""alpha"": 90.0, ""beta"": 90.0, ""gamma"": 90.0, ""volume"": 148.5030997389579}, ""properties"": {}, ""sites"": [{""species"": [{""element"": ""La"", ""occu"": 1}], ""abc"": [0.0, 0.0, 0.0], ""properties"": {""magmom"": -0.0}, ""label"": ""La"", ""xyz"": [0.0, 0.0, 0.0]}, {""species"": [{""element"": ""Bi"", ""occu"": 1}], ""abc"": [0.5, 0.5, 0.278377], ""properties"": {""magmom"": -0.0}, ""label"": ""Bi"", ""xyz"": [1.9944484999999994, 1.9944484999999994, 2.598144040745]}, {""species"": [{""element"": ""Bi"", ""occu"": 1}], ""abc"": [0.5, 0.5, 0.721623], ""properties"": {""magmom"": -0.0}, ""label"": ""Bi"", ""xyz"": [1.9944484999999994, 1.9944484999999994, 6.7350409592550005]}, {""species"": [{""element"": ""Cl"", ""occu"": 1}], ""abc"": [0.0, 0.0, 0.5], ""properties"": {""magmom"": 0.001}, ""label"": ""Cl"", ""xyz"": [0.0, 0.0, 4.6665925]}, {""species"": [{""element"": ""O"", ""occu"": 1}], ""abc"": [0.0, 0.5, 0.161656], ""properties"": {""magmom"": 0.0}, ""label"": ""O"", ""xyz"": [0.0, 1.9944484999999994, 1.50876535436]}, {""species"": [{""element"": ""O"", ""occu"": 1}], ""abc"": [0.0, 0.5, 0.838344], ""properties"": {""magmom"": 0.0}, ""label"": ""O"", ""xyz"": [0.0, 1.9944484999999994, 7.82441964564]}, {""species"": [{""element"": ""O"", ""occu"": 1}], ""abc"": [0.5, 0.0, 0.161656], ""properties"": {""magmom"": 0.0}, ""label"": ""O"", ""xyz"": [1.9944484999999994, 0.0, 1.50876535436]}, {""species"": [{""element"": ""O"", ""occu"": 1}], ""abc"": [0.5, 0.0, 0.838344], ""properties"": {""magmom"": 0.0}, ""label"": ""O"", ""xyz"": [1.9944484999999994, 0.0, 7.82441964564]}]}",LaBi2ClO4,123,1.2775,0.0,0.012732513931854,0.0490292818459768,0.0073373387731535
mp-30034,"{""@module"": ""pymatgen.core.structure"", ""@class"": ""Structure"", ""charge"": 0, ""lattice"": {""matrix"": [[3.85746916, -0.0, 0.0], [-1.92873458, 3.34066669, 0.0], [-0.0, 0.0, 6.40192218]], ""pbc"": [true, true, true], ""a"": 3.85746916, ""b"": 3.8574695091164792, ""c"": 6.40192218, ""alpha"": 90.0, ""beta"": 90.0, ""gamma"": 119.99999700615132, ""volume"": 82.49849008386481}, ""properties"": {}, ""sites"": [{""species"": [{""element"": ""Mg"", ""occu"": 1}], ""abc"": [-0.0, -0.0, -0.0], ""properties"": {""magmom"": 0.0}, ""label"": ""Mg"", ""xyz"": [0.0, 0.0, 0.0]}, {""species"": [{""element"": ""Br"", ""occu"": 1}], ""abc"": [0.333333, 0.666667, 0.23347631], ""properties"": {""magmom"": 0.0}, ""label"": ""Br"", ""xyz"": [-1.9287345800478306e-06, 2.22711224022223, 1.4946971674935556]}, {""species"": [{""element"": ""Br"", ""occu"": 1}], ""abc"": [0.666667, 0.333333, 0.76652369], ""properties"": {""magmom"": 0.0}, ""label"": ""Br"", ""xyz"": [1.92873650873458, 1.1135544497777699, 4.907225012506444]}]}",MgBr2,164,4.4648,0.0,0.0024698652022733,0.0037101095098525,0.0017210608313453
mp-3236,"{""@module"": ""pymatgen.core.structure"", ""@class"": ""Structure"", ""charge"": 0, ""lattice"": {""matrix"": [[4.00789086, 1e-08, -0.0], [-2.00394441, 3.47093493, 0.0], [0.0, 0.0, 6.87975311]], ""pbc"": [true, true, true], ""a"": 4.00789086, ""b"": 4.007890029262823, ""c"": 6.87975311, ""alpha"": 90.0, ""beta"": 90.0, ""gamma"": 119.9999898762073, ""volume"": 95.70512888480026}, ""properties"": {}, ""sites"": [{""species"": [{""element"": ""Pr"", ""occu"": 1}], ""abc"": [0.666667, 0.333333, 0.71979791], ""properties"": {""magmom"": -0.0}, ""label"": ""Pr"", ""xyz"": [2.00394777394509, 1.15697715968836, 4.952031909894001]}, {""species"": [{""element"": ""Pr"", ""occu"": 1}], ""abc"": [0.333333, 0.666667, 0.28020209], ""properties"": {""magmom"": -0.0}, ""label"": ""Pr"", ""xyz"": [-1.3239450900037752e-06, 2.31395778031164, 1.927721200106]}, {""species"": [{""element"": ""S"", ""occu"": 1}], ""abc"": [0.0, 0.0, 0.0], ""properties"": {""magmom"": 0.0}, ""label"": ""S"", ""xyz"": [0.0, 0.0, 0.0]}, {""species"": [{""element"": ""O"", ""occu"": 1}], ""abc"": [0.333333, 0.666667, 0.62933196], ""properties"": {""magmom"": 0.0}, ""label"": ""O"", ""xyz"": [-1.3239450900037752e-06, 2.31395778031164, 4.3296485090323955]}, {""species"": [{""element"": ""O"", ""occu"": 1}], ""abc"": [0.666667, 0.333333, 0.37066804000000003], ""properties"": {""magmom"": 0.0}, ""label"": ""O"", ""xyz"": [2.00394777394509, 1.15697715968836, 2.5501046009676047]}]}",Pr2SO2,164,2.8588,0.0,0.0055554341535577,0.0085640241314209,0.003795709794971
mp-406,"{""@module"": ""pymatgen.core.structure"", ""@class"": ""Structure"", ""charge"": 0, ""lattice"": {""matrix"": [[4.01975092, -1e-08, 2.32080405], [1.33991663, 3.78985853, 2.32080405], [-1e-08, -1e-08, 4.64161015]], ""pbc"": [true, true, true], ""a"": 4.641608438605873, ""b"": 4.641609170455944, ""c"": 4.64161015, ""alpha"": 60.00000778643148, ""beta"": 60.00000253660983, ""gamma"": 60.00001117898339, ""volume"": 70.71162283069633}, ""properties"": {}, ""sites"": [{""species"": [{""element"": ""Cd"", ""occu"": 1}], ""abc"": [0.0, -0.0, 0.0], ""properties"": {""magmom"": 0.0}, ""label"": ""Cd"", ""xyz"": [0.0, 0.0, 0.0]}, {""species"": [{""element"": ""Te"", ""occu"": 1}], ""abc"": [0.25, 0.25, 0.25], ""properties"": {""magmom"": -0.0}, ""label"": ""Te"", ""xyz"": [1.339916885, 0.9474646275, 2.3208045625000002]}]}",CdTe,216,0.6037999999999999,0.0,0.2268858434643202,0.3868803558839503,0.1781459177880709
mp-8255,"{""@module"": ""pymatgen.core.structure"", ""@class"": ""Structure"", ""charge"": 0, ""lattice"": {""matrix"": [[4.66571378, 0.02574353, 3.44871755], [1.75289639, 4.3236073600000005, 3.44919946], [0.03764499, 0.02486214, 5.80182532]], ""pbc"": [true, true, true], ""a"": 5.801999702335114, ""b"": 5.801999937296233, ""c"": 5.802000716569292, ""alpha"": 53.15730874650388, ""beta"": 53.157300773067234, ""gamma"": 53.15730590116081, ""volume"": 115.968967564127}, ""properties"": {}, ""sites"": [{""species"": [{""element"": ""Ca"", ""occu"": 1}], ""abc"": [0.5, 0.5, 0.5], ""properties"": {""magmom"": -0.0}, ""label"": ""Ca"", ""xyz"": [3.22812758, 2.187106515, 6.349871165]}, {""species"": [{""element"": ""Pt"", ""occu"": 1}], ""abc"": [-0.0, 0.0, 0.0], ""properties"": {""magmom"": -0.0}, ""label"": ""Pt"", ""xyz"": [0.0, 0.0, 0.0]}, {""species"": [{""element"": ""F"", ""occu"": 1}], ""abc"": [0.38285761, 0.07137991, 0.77755345], ""properties"": {""magmom"": 0.0}, ""label"": ""F"", ""xyz"": [1.9406966051621062, 0.337806453332284, 6.077800599648258]}, {""species"": [{""element"": ""F"", ""occu"": 1}], ""abc"": [0.07137991, 0.77755345, 0.38285761], ""properties"": {""magmom"": 0.0}, ""label"": ""F"", ""xyz"": [1.710421536139079, 3.37319204956776, 5.149379063848242]}, {""species"": [{""element"": ""F"", ""occu"": 1}], ""abc"": [0.22244655, 0.61714239, 0.92862009], ""properties"": {""magmom"": 0.0}, ""label"": ""F"", ""xyz"": [2.1546164951972804, 2.6970954216897054, 8.28349407007574]}, {""species"": [{""element"": ""F"", ""occu"": 1}], ""abc"": [0.92862009, 0.22244655, 0.61714239], ""properties"": {""magmom"": 0.0}, ""label"": ""F"", ""xyz"": [4.7458336238609204, 1.0010209804322405, 7.5503632661517575]}, {""species"": [{""element"": ""F"", ""occu"": 1}], ""abc"": [0.61714239, 0.92862009, 0.22244655], ""properties"": {""magmom"": 0.0}, ""label"": ""F"", ""xyz"": [4.515558554837894, 4.036406576667717, 6.621941730351741]}, {""species"": [{""element"": ""F"", ""occu"": 1}], ""abc"": [0.77755345, 0.38285761, 0.07137991], ""properties"": {""magmom"": 0.0}, ""label"": ""F"", ""xyz"": [4.301638664802719, 1.6771176083102957, 4.41624825992426]}]}",CaPtF6,148,2.4778,0.0,0.0027902385718964,0.004529160301006,0.0018002943316681
mp-571102,"{""@module"": ""pymatgen.core.structure"", ""@class"": ""Structure"", ""charge"": 0, ""lattice"": {""matrix"": [[4.31236629, 3.0000000000000004e-08, 2.489745929999999], [1.437456469999999, 4.06573556, 2.489745929999999], [2e-08, 1e-08, 4.97948979]], ""pbc"": [true, true, true], ""a"": 4.979491722563652, ""b"": 4.979490088648126, ""c"": 4.97948979, ""alpha"": 59.999988047367765, ""beta"": 59.999998856856465, ""gamma"": 59.99997624483909, ""volume"": 87.30510007495263}, ""properties"": {}, ""sites"": [{""species"": [{""element"": ""Tl"", ""occu"": 1}], ""abc"": [-0.0, -0.0, 0.0], ""properties"": {""magmom"": 0.0}, ""label"": ""Tl"", ""xyz"": [0.0, 0.0, 0.0]}, {""species"": [{""element"": ""I"", ""occu"": 1}], ""abc"": [0.5, 0.5, 0.5], ""properties"": {""magmom"": 0.0}, ""label"": ""I"", ""xyz"": [2.8749113899999994, 2.0328678, 4.979490824999999]}]}",TlI,225,2.1932,0.0,0.0148149386118783,0.0256841410006002,0.0096371609349403
mp-861937,"{""@module"": ""pymatgen.core.structure"", ""@class"": ""Structure"", ""charge"": 0, ""lattice"": {""matrix"": [[-0.0, 4.011624, 4.011624], [4.011624, -0.0, 4.011624], [4.011624, 4.011624, 0.0]], ""pbc"": [true, true, true], ""a"": 5.6732930679414055, ""b"": 5.6732930679414055, ""c"": 5.6732930679414055, ""alpha"": 60.00000000000001, ""beta"": 60.00000000000001, ""gamma"": 60.00000000000001, ""volume"": 129.11914995823278}, ""properties"": {}, ""sites"": [{""species"": [{""element"": ""Ba"", ""occu"": 1}], ""abc"": [0.5, 0.5, 0.5], ""properties"": {""magmom"": 0.0}, ""label"": ""Ba"", ""xyz"": [4.011624, 4.011624, 4.011624]}, {""species"": [{""element"": ""Ba"", ""occu"": 1}], ""abc"": [-0.0, -0.0, -0.0], ""properties"": {""magmom"": 0.0}, ""label"": ""Ba"", ""xyz"": [0.0, 0.0, 0.0]}, {""species"": [{""element"": ""As"", ""occu"": 1}], ""abc"": [0.249999, 0.249999, 0.249999], ""properties"": {""magmom"": 0.0}, ""label"": ""As"", ""xyz"": [2.005803976752, 2.005803976752, 2.005803976752]}, {""species"": [{""element"": ""Au"", ""occu"": 1}], ""abc"": [0.75, 0.75, 0.75], ""properties"": {""magmom"": -0.0}, ""label"": ""Au"", ""xyz"": [6.017436, 6.017436, 6.017436]}]}",Ba2AsAu,225,0.5124,0.0,2.401311752051475,2.47060475828132,1.1392825192420335
mp-34337,"{""@module"": ""pymatgen.core.structure"", ""@class"": ""Structure"", ""charge"": 0, ""lattice"": {""matrix"": [[3.80859593, -0.0, 0.0], [0.0, 3.80859593, 0.0], [-0.0, 0.0, 3.80859593]], ""pbc"": [true, true, true], ""a"": 3.80859593, ""b"": 3.80859593, ""c"": 3.80859593, ""alpha"": 90.0, ""beta"": 90.0, ""gamma"": 90.0, ""volume"": 55.24521866889662}, ""properties"": {}, ""sites"": [{""species"": [{""element"": ""H"", ""occu"": 1}], ""abc"": [0.15673091, 0.15673091, 0.84326909], ""properties"": {""magmom"": -0.0}, ""label"": ""H"", ""xyz"": [0.5969247059311963, 0.5969247059311963, 3.211671224068804]}, {""species"": [{""element"": ""H"", ""occu"": 1}], ""abc"": [0.15673091, 0.84326909, 0.15673091], ""properties"": {""magmom"": -0.0}, ""label"": ""H"", ""xyz"": [0.5969247059311963, 3.211671224068804, 0.5969247059311963]}, {""species"": [{""element"": ""H"", ""occu"": 1}], ""abc"": [0.84326909, 0.15673091, 0.15673091], ""properties"": {""magmom"": -0.0}, ""label"": ""H"", ""xyz"": [3.211671224068804, 0.5969247059311963, 0.5969247059311963]}, {""species"": [{""element"": ""H"", ""occu"": 1}], ""abc"": [0.84326909, 0.84326909, 0.84326909], ""properties"": {""magmom"": -0.0}, ""label"": ""H"", ""xyz"": [3.211671224068804, 3.211671224068804, 3.211671224068804]}, {""species"": [{""element"": ""N"", ""occu"": 1}], ""abc"": [0.0, 0.0, 0.0], ""properties"": {""magmom"": 0.0}, ""label"": ""N"", ""xyz"": [0.0, 0.0, 0.0]}, {""species"": [{""element"": ""Cl"", ""occu"": 1}], ""abc"": [0.5, 0.5, 0.5], ""properties"": {""magmom"": 0.0}, ""label"": ""Cl"", ""xyz"": [1.904297965, 1.904297965, 1.904297965]}]}",H4NCl,215,4.9335,0.0,0.0015548078432225,0.002290992360345,0.0010967642365701
mp-827,"{""@module"": ""pymatgen.core.structure"", ""@class"": ""Structure"", ""charge"": 0, ""lattice"": {""matrix"": [[5.10588696, -0.00962363, -2.21572828], [-2.9050651800000002, 4.61011881, -1.13446449], [-0.00606413, 0.00962363, 5.56592207]], ""pbc"": [true, true, true], ""a"": 5.565934429486587, ""b"": 5.565932879709853, ""c"": 5.565933693212678, ""alpha"": 101.64350722893107, ""beta"": 113.52123972774163, ""gamma"": 113.52126179591957, ""volume"": 130.91489535524028}, ""properties"": {}, ""sites"": [{""species"": [{""element"": ""K"", ""occu"": 1}], ""abc"": [0.0, 0.75, 0.75], ""properties"": {""magmom"": -0.0}, ""label"": ""K"", ""xyz"": [-2.1833469825, 3.4648068300000006, 3.323593185]}, {""species"": [{""element"": ""K"", ""occu"": 1}], ""abc"": [0.0, 0.25, 0.25], ""properties"": {""magmom"": -0.0}, ""label"": ""K"", ""xyz"": [-0.7277823275, 1.1549356100000001, 1.107864395]}, {""species"": [{""element"": ""N"", ""occu"": 1}], ""abc"": [0.5, 0.0, 0.5], ""properties"": {""magmom"": -0.0}, ""label"": ""N"", ""xyz"": [2.549911415, 0.0, 1.675096895]}, {""species"": [{""element"": ""N"", ""occu"": 1}], ""abc"": [0.5, 0.5, 0.0], ""properties"": {""magmom"": -0.0}, ""label"": ""N"", ""xyz"": [1.10041089, 2.30024759, -1.675096385]}, {""species"": [{""element"": ""N"", ""occu"": 1}], ""abc"": [0.77388763, 0.63694281, 0.13694281], ""properties"": {""magmom"": 0.0}, ""label"": ""N"", ""xyz"": [2.100191940537544, 2.930252307997159, -1.675100698932177]}, {""species"": [{""element"": ""N"", ""occu"": 1}], ""abc"": [0.5, 0.13694281, 0.36305719000000003], ""properties"": {""magmom"": 0.0}, ""label"": ""N"", ""xyz"": [2.15291406502005, 0.6300047373406558, 0.7575271313873666]}, {""species"": [{""element"": ""N"", ""occu"": 1}], ""abc"": [0.5, 0.86305719, 0.63694281], ""properties"": {""magmom"": 0.0}, ""label"": ""N"", ""xyz"": [0.04184358497995043, 3.9801140726593447, 1.4582021686126336]}, {""species"": [{""element"": ""N"", ""occu"": 1}], ""abc"": [0.22611237, 0.36305719000000003, 0.86305719], ""properties"": {""magmom"": 0.0}, ""label"": ""N"", ""xyz"": [0.09456570946245639, 1.6798665020028407, 3.8908299989321766]}]}",KN3,140,4.1561,0.0,0.003614401066436,0.005564545156576,0.0024476058038791
mp-999137,"{""@module"": ""pymatgen.core.structure"", ""@class"": ""Structure"", ""charge"": 0, ""lattice"": {""matrix"": [[-2.12895843, -3.68746403, -0.0], [-4.25791582, -1e-08, -0.0], [-2.12895843, -1.22915468, -7.72181494]], ""pbc"": [true, true, true], ""a"": 4.257916740521344, ""b"": 4.25791582, ""c"": 8.103685037786276, ""alpha"": 74.76878683459896, ""beta"": 74.76878698051692, ""gamma"": 59.999998937207955, ""volume"": 121.23953227981337}, ""properties"": {}, ""sites"": [{""species"": [{""element"": ""Sm"", ""occu"": 1}], ""abc"": [0.0, 0.0, 0.0], ""properties"": {""magmom"": -0.0}, ""label"": ""Sm"", ""xyz"": [0.0, 0.0, 0.0]}, {""species"": [{""element"": ""Tl"", ""occu"": 1}], ""abc"": [0.5, 0.5, 0.5], ""properties"": {""magmom"": 0.0}, ""label"": ""Tl"", ""xyz"": [-4.2579163399999995, -2.45830936, -3.86090747]}, {""species"": [{""element"": ""Se"", ""occu"": 1}], ""abc"": [0.73628121, 0.73628121, 0.79115636], ""properties"": {""magmom"": 0.0}, ""label"": ""Se"", ""xyz"": [-6.386874502977957, -3.6874640277084536, -6.109163000524018]}, {""species"": [{""element"": ""Se"", ""occu"": 1}], ""abc"": [0.26371879, 0.26371879, 0.20884364], ""properties"": {""magmom"": 0.0}, ""label"": ""Se"", ""xyz"": [-2.1289581770220427, -1.2291546922915466, -1.6126519394759815]}]}",SmTlSe2,166,1.2799,0.0,0.0228369195317399,0.0425132584113587,0.0142712036843729
mp-1206803,"{""@module"": ""pymatgen.core.structure"", ""@class"": ""Structure"", ""charge"": 0, ""lattice"": {""matrix"": [[1.93909722, -3.35861321, 0.0], [1.93909722, 3.35861321, -0.0], [-0.0, -0.0, 11.06945342]], ""pbc"": [true, true, true], ""a"": 3.8781929713460928, ""b"": 3.8781929713460928, ""c"": 11.06945342, ""alpha"": 90.0, ""beta"": 90.0, ""gamma"": 119.99997494571127, ""volume"": 144.1835613052793}, ""properties"": {}, ""sites"": [{""species"": [{""element"": ""Y"", ""occu"": 1}], ""abc"": [0.333333, 0.666667, 0.1182833], ""properties"": {""magmom"": -0.0}, ""label"": ""Y"", ""xyz"": [1.93909722, 1.1195399757421403, 1.309331479713886]}, {""species"": [{""element"": ""Y"", ""occu"": 1}], ""abc"": [0.666667, 0.333333, 0.881716699999999], ""properties"": {""magmom"": -0.0}, ""label"": ""Y"", ""xyz"": [1.93909722, -1.1195399757421403, 9.760121940286103]}, {""species"": [{""element"": ""C"", ""occu"": 1}], ""abc"": [-0.0, -0.0, 0.0], ""properties"": {""magmom"": 0.0}, ""label"": ""C"", ""xyz"": [0.0, 0.0, 0.0]}, {""species"": [{""element"": ""I"", ""occu"": 1}], ""abc"": [0.333333, 0.666667, 0.68699021], ""properties"": {""magmom"": 0.0}, ""label"": ""I"", ""xyz"": [1.93909722, 1.1195399757421403, 7.604606129591019]}, {""species"": [{""element"": ""I"", ""occu"": 1}], ""abc"": [0.666667, 0.333333, 0.31300979], ""properties"": {""magmom"": 0.0}, ""label"": ""I"", ""xyz"": [1.93909722, -1.1195399757421403, 3.464847290408982]}]}",Y2CI2,164,0.4933,0.0,0.7560970955258801,0.8634751714002747,0.5030319854913708
mp-361,"{""@module"": ""pymatgen.core.structure"", ""@class"": ""Structure"", ""charge"": 0, ""lattice"": {""matrix"": [[4.24669932, -0.0, -0.0], [0.0, 4.24669932, -0.0], [-0.0, 0.0, 4.24669932]], ""pbc"": [true, true, true], ""a"": 4.24669932, ""b"": 4.24669932, ""c"": 4.24669932, ""alpha"": 90.0, ""beta"": 90.0, ""gamma"": 90.0, ""volume"": 76.5869082712687}, ""properties"": {}, ""sites"": [{""species"": [{""element"": ""Cu"", ""occu"": 1}], ""abc"": [0.5, 0.5, -0.0], ""properties"": {""magmom"": 0.0}, ""label"": ""Cu"", ""xyz"": [2.12334966, 2.12334966, 0.0]}, {""species"": [{""element"": ""Cu"", ""occu"": 1}], ""abc"": [-0.0, 0.5, 0.5], ""properties"": {""magmom"": 0.0}, ""label"": ""Cu"", ""xyz"": [0.0, 2.12334966, 2.12334966]}, {""species"": [{""element"": ""Cu"", ""occu"": 1}], ""abc"": [0.5, -0.0, 0.5], ""properties"": {""magmom"": 0.0}, ""label"": ""Cu"", ""xyz"": [2.12334966, 0.0, 2.12334966]}, {""species"": [{""element"": ""Cu"", ""occu"": 1}], ""abc"": [0.0, 0.0, 0.0], ""properties"": {""magmom"": 0.0}, ""label"": ""Cu"", ""xyz"": [0.0, 0.0, 0.0]}, {""species"": [{""element"": ""O"", ""occu"": 1}], ""abc"": [0.75, 0.75, 0.75], ""properties"": {""magmom"": -0.0}, ""label"": ""O"", ""xyz"": [3.18502449, 3.18502449, 3.18502449]}, {""species"": [{""element"": ""O"", ""occu"": 1}], ""abc"": [0.25, 0.25, 0.25], ""properties"": {""magmom"": -0.0}, ""label"": ""O"", ""xyz"": [1.06167483, 1.06167483, 1.06167483]}]}",Cu2O,224,0.4619,0.0,0.1124522687359073,0.372554573080182,0.0333134302139378
mp-999461,"{""@module"": ""pymatgen.core.structure"", ""@class"": ""Structure"", ""charge"": 0, ""lattice"": {""matrix"": [[-2.15158079, -3.72664647, -0.0], [-4.30316056, -1e-08, -0.0], [-2.15158079, -1.24221549, -6.93020286]], ""pbc"": [true, true, true], ""a"": 4.303160908943621, ""b"": 4.30316056, ""c"": 7.362072459589429, ""alpha"": 73.00716862503754, ""beta"": 73.00716955868856, ""gamma"": 59.99999470823304, ""volume"": 111.13521469411428}, ""properties"": {}, ""sites"": [{""species"": [{""element"": ""Na"", ""occu"": 1}], ""abc"": [0.5, 0.5, 0.5], ""properties"": {""magmom"": 0.0}, ""label"": ""Na"", ""xyz"": [-4.303161070000001, -2.484430985, -3.46510143]}, {""species"": [{""element"": ""Pr"", ""occu"": 1}], ""abc"": [0.0, 0.0, -0.0], ""properties"": {""magmom"": 0.0}, ""label"": ""Pr"", ""xyz"": [0.0, 0.0, 0.0]}, {""species"": [{""element"": ""Se"", ""occu"": 1}], ""abc"": [0.7467329500000001, 0.7467329500000001, 0.7598001600000001], ""properties"": {""magmom"": -0.0}, ""label"": ""Se"", ""xyz"": [-6.45473947826741, -3.7266452476739946, -5.265569241860458]}, {""species"": [{""element"": ""Se"", ""occu"": 1}], ""abc"": [0.25326705, 0.25326705, 0.24019984], ""properties"": {""magmom"": -0.0}, ""label"": ""Se"", ""xyz"": [-2.1515826617325913, -1.2422167223260057, -1.6646336181395422]}]}",NaPrSe2,166,1.829,0.0,0.0181857733914243,0.0358130296907713,0.0116519668709928