id,structure_json,formula,spacegroup,bandgap,energy_above_hull,k_1064,k_755,k_1500
mp-7575,"{""@module"": ""pymatgen.core.structure"", ""@class"": ""Structure"", ""charge"": 0, ""lattice"": {""matrix"": [[2.97906657, 0.0, 1.71996563], [0.9930225300000001, 2.80869047, 1.71996563], [0.0, 0.0, 3.43992825]], ""pbc"": [true, true, true], ""a"": 3.439930144185033, ""b"": 3.4399298931428417, ""c"": 3.43992825, ""alpha"": 59.99998685575717, ""beta"": 59.99998926987979, ""gamma"": 59.999984769392775, ""volume"": 28.78282869116706}, ""properties"": {}, ""sites"": [{""species"": [{""element"": ""Li"", ""occu"": 1}], ""abc"": [0.25, 0.25, 0.25], ""properties"": {""magmom"": 0.0}, ""label"": ""Li"", ""xyz"": [0.9930222750000001, 0.7021726175, 1.7199648774999998]}, {""species"": [{""element"": ""Zn"", ""occu"": 1}], ""abc"": [0.75, 0.75, 0.75], ""properties"": {""magmom"": 0.0}, ""label"": ""Zn"", ""xyz"": [2.979066825, 2.1065178525, 5.1598946325]}, {""species"": [{""element"": ""N"", ""occu"": 1}], ""abc"": [0.0, 0.0, -0.0], ""properties"": {""magmom"": -0.0}, ""label"": ""N"", ""xyz"": [0.0, 0.0, 0.0]}]}",LiZnN,216,0.5451999999999999,0.0,0.6400905413006316,0.3671930714800634,0.1386728784878735
mp-7959,"{""@module"": ""pymatgen.core.structure"", ""@class"": ""Structure"", ""charge"": 0, ""lattice"": {""matrix"": [[6.25188383, -1.70419714, -0.00149733], [6.25188383, 1.70419714, -0.00149733], [5.7880354700000005, -0.0, 2.91358462]], ""pbc"": [true, true, true], ""a"": 6.47999549056917, ""b"": 6.47999549056917, ""c"": 6.479994594124186, ""alpha"": 30.49552333665256, ""beta"": 30.49552333665256, ""gamma"": 30.495528704268853, ""volume"": 62.11477904112952}, ""properties"": {}, ""sites"": [{""species"": [{""element"": ""K"", ""occu"": 1}], ""abc"": [0.0, 0.0, -0.0], ""properties"": {""magmom"": 0.0}, ""label"": ""K"", ""xyz"": [0.0, 0.0, 0.0]}, {""species"": [{""element"": ""Er"", ""occu"": 1}], ""abc"": [0.5, 0.5, 0.5], ""properties"": {""magmom"": -0.0}, ""label"": ""Er"", ""xyz"": [9.145901564999999, 0.0, 1.45529498]}, {""species"": [{""element"": ""O"", ""occu"": 1}], ""abc"": [0.77176693, 0.77176693, 0.77176693], ""properties"": {""magmom"": 0.0}, ""label"": ""O"", ""xyz"": [14.11700874580449, 0.0, 2.246297077918023]}, {""species"": [{""element"": ""O"", ""occu"": 1}], ""abc"": [0.22823307, 0.22823307, 0.22823307], ""properties"": {""magmom"": 0.0}, ""label"": ""O"", ""xyz"": [4.1747943841955095, 0.0, 0.6642928820819772]}]}",KErO2,166,3.974,0.0,0.0026914488430146,0.0041467730837471,0.0019184079915495
mp-9366,"{""@module"": ""pymatgen.core.structure"", ""@class"": ""Structure"", ""charge"": 0, ""lattice"": {""matrix"": [[7.73666618, -2.01977706, 0.00250918], [7.73666618, 2.01977706, 0.00250918], [7.20825025, -0.0, 3.460727529999999]], ""pbc"": [true, true, true], ""a"": 7.99596831214596, ""b"": 7.99596831214596, ""c"": 7.995968152983411, ""alpha"": 29.262773187390362, ""beta"": 29.262773187390362, ""gamma"": 29.2627734075127, ""volume"": 108.0839534957391}, ""properties"": {}, ""sites"": [{""species"": [{""element"": ""Rb"", ""occu"": 1}], ""abc"": [-0.0, -0.0, -0.0], ""properties"": {""magmom"": 0.0}, ""label"": ""Rb"", ""xyz"": [0.0, 0.0, 0.0]}, {""species"": [{""element"": ""Ho"", ""occu"": 1}], ""abc"": [0.5, 0.5, 0.5], ""properties"": {""magmom"": -0.0}, ""label"": ""Ho"", ""xyz"": [11.340791305, 0.0, 1.7328729449999996]}, {""species"": [{""element"": ""S"", ""occu"": 1}], ""abc"": [0.7694742999999991, 0.7694742999999991, 0.7694742999999991], ""properties"": {""magmom"": 0.0}, ""label"": ""S"", ""xyz"": [17.4528949017219, 0.0, 2.666802392685623]}, {""species"": [{""element"": ""S"", ""occu"": 1}], ""abc"": [0.2305257, 0.2305257, 0.2305257], ""properties"": {""magmom"": 0.0}, ""label"": ""S"", ""xyz"": [5.228687708278077, 0.0, 0.7989434973143728]}]}",RbHoS2,166,2.3637,0.0,0.009290319001005,0.015537437713805,0.0061893394889519
mp-8452,"{""@module"": ""pymatgen.core.structure"", ""@class"": ""Structure"", ""charge"": 0, ""lattice"": {""matrix"": [[4.00926097, 0.0, 0.0], [0.0, 4.00926097, -0.0], [0.0, 0.0, 6.47945416]], ""pbc"": [true, true, true], ""a"": 4.00926097, ""b"": 4.00926097, ""c"": 6.47945416, ""alpha"": 90.0, ""beta"": 90.0, ""gamma"": 90.0, ""volume"": 104.15187051878621}, ""properties"": {}, ""sites"": [{""species"": [{""element"": ""Na"", ""occu"": 1}], ""abc"": [0.25, 0.25, 0.6485520300000001], ""properties"": {""magmom"": 0.0}, ""label"": ""Na"", ""xyz"": [1.0023152425, 1.0023152425, 4.202263148759945]}, {""species"": [{""element"": ""Na"", ""occu"": 1}], ""abc"": [0.75, 0.75, 0.35144797], ""properties"": {""magmom"": 0.0}, ""label"": ""Na"", ""xyz"": [3.0069457274999998, 3.0069457274999998, 2.2771910112400553]}, {""species"": [{""element"": ""Li"", ""occu"": 1}], ""abc"": [0.25, 0.75, -0.0], ""properties"": {""magmom"": -0.0}, ""label"": ""Li"", ""xyz"": [1.0023152425, 3.0069457274999998, 0.0]}, {""species"": [{""element"": ""Li"", ""occu"": 1}], ""abc"": [0.75, 0.25, -0.0], ""properties"": {""magmom"": -0.0}, ""label"": ""Li"", ""xyz"": [3.0069457274999998, 1.0023152425, 0.0]}, {""species"": [{""element"": ""S"", ""occu"": 1}], ""abc"": [0.25, 0.25, 0.21674588], ""properties"": {""magmom"": 0.0}, ""label"": ""S"", ""xyz"": [1.0023152425, 1.0023152425, 1.404394993828861]}, {""species"": [{""element"": ""S"", ""occu"": 1}], ""abc"": [0.75, 0.75, 0.78325412], ""properties"": {""magmom"": 0.0}, ""label"": ""S"", ""xyz"": [3.0069457274999998, 3.0069457274999998, 5.0750591661711395]}]}",NaLiS,129,3.0685,0.0,0.0053551788289095,0.0084545772143767,0.0036613407680448
mp-8751,"{""@module"": ""pymatgen.core.structure"", ""@class"": ""Structure"", ""charge"": 0, ""lattice"": {""matrix"": [[4.41180301, 0.0, 0.0], [-0.0, 4.41180301, 0.0], [-0.0, -0.0, 7.26324285]], ""pbc"": [true, true, true], ""a"": 4.41180301, ""b"": 4.41180301, ""c"": 7.26324285, ""alpha"": 90.0, ""beta"": 90.0, ""gamma"": 90.0, ""volume"": 141.37180095227257}, ""properties"": {}, ""sites"": [{""species"": [{""element"": ""Rb"", ""occu"": 1}], ""abc"": [0.25, 0.25, 0.65953247], ""properties"": {""magmom"": 0.0}, ""label"": ""Rb"", ""xyz"": [1.1029507525, 1.1029507525, 4.79034449707034]}, {""species"": [{""element"": ""Rb"", ""occu"": 1}], ""abc"": [0.75, 0.75, 0.34046753], ""properties"": {""magmom"": 0.0}, ""label"": ""Rb"", ""xyz"": [3.3088522575, 3.3088522575, 2.472898352929661]}, {""species"": [{""element"": ""Li"", ""occu"": 1}], ""abc"": [0.25, 0.75, -0.0], ""properties"": {""magmom"": -0.0}, ""label"": ""Li"", ""xyz"": [1.1029507525, 3.3088522575, 0.0]}, {""species"": [{""element"": ""Li"", ""occu"": 1}], ""abc"": [0.75, 0.25, -0.0], ""properties"": {""magmom"": -0.0}, ""label"": ""Li"", ""xyz"": [3.3088522575, 1.1029507525, 0.0]}, {""species"": [{""element"": ""S"", ""occu"": 1}], ""abc"": [0.25, 0.25, 0.17472365], ""properties"": {""magmom"": -0.0}, ""label"": ""S"", ""xyz"": [1.1029507525, 1.1029507525, 1.2690603015884026]}, {""species"": [{""element"": ""S"", ""occu"": 1}], ""abc"": [0.75, 0.75, 0.82527635], ""properties"": {""magmom"": -0.0}, ""label"": ""S"", ""xyz"": [3.3088522575, 3.3088522575, 5.994182548411597]}]}",RbLiS,129,2.7559,0.0,0.0056864559986905,0.0091230008674808,0.003899914463486
mp-1223956,"{""@module"": ""pymatgen.core.structure"", ""@class"": ""Structure"", ""charge"": 0, ""lattice"": {""matrix"": [[-2.07914635, 2.66348013, 6.67403624], [2.07914635, -2.66348013, 6.67403624], [2.07914635, 2.66348013, -6.67403624]], ""pbc"": [true, true, true], ""a"": 7.480624016782055, ""b"": 7.480624016782055, ""c"": 7.480624016782055, ""alpha"": 147.72569991237535, ""beta"": 138.28431491009988, ""gamma"": 53.70396010749531, ""volume"": 147.83697694312428}, ""properties"": {}, ""sites"": [{""species"": [{""element"": ""Ho"", ""occu"": 1}], ""abc"": [0.8327480700000001, 0.33274807, 0.5], ""properties"": {""magmom"": -0.0}, ""label"": ""Ho"", ""xyz"": [-2.220446049250313e-16, 2.66348013, 4.441545355940114]}, {""species"": [{""element"": ""Ho"", ""occu"": 1}], ""abc"": [0.16725193, 0.66725193, 0.5], ""properties"": {""magmom"": -0.0}, ""label"": ""Ho"", ""xyz"": [2.07914635, 0.0, 2.2324908840598874]}, {""species"": [{""element"": ""Te"", ""occu"": 1}], ""abc"": [-0.0, -0.0, -0.0], ""properties"": {""magmom"": -0.0}, ""label"": ""Te"", ""xyz"": [0.0, 0.0, 0.0]}, {""species"": [{""element"": ""S"", ""occu"": 1}], ""abc"": [0.70215567, 0.70215567, 0.0], ""properties"": {""magmom"": 0.0}, ""label"": ""S"", ""xyz"": [0.0, 0.0, 9.372424775402962]}, {""species"": [{""element"": ""S"", ""occu"": 1}], ""abc"": [0.29784433, 0.29784433, -0.0], ""properties"": {""magmom"": 0.0}, ""label"": ""S"", ""xyz"": [0.0, 0.0, 3.9756477045970384]}]}",Ho2TeS2,71,1.7847,0.0,0.0243547532370437,0.0537412804098309,0.015057958561321
mp-10781,"{""@module"": ""pymatgen.core.structure"", ""@class"": ""Structure"", ""charge"": 0, ""lattice"": {""matrix"": [[8.0371682, -2.13597024, -0.00049748], [8.0371682, 2.13597024, -0.00049748], [7.46973539, 0.0, 3.65533829]], ""pbc"": [true, true, true], ""a"": 8.316155469250395, ""b"": 8.316155469250395, ""c"": 8.316155650957874, ""alpha"": 29.76598596858464, ""beta"": 29.76598596858464, ""gamma"": 29.76597914849816, ""volume"": 125.51937144152001}, ""properties"": {}, ""sites"": [{""species"": [{""element"": ""Rb"", ""occu"": 1}], ""abc"": [-0.0, 0.0, -0.0], ""properties"": {""magmom"": -0.002}, ""label"": ""Rb"", ""xyz"": [0.0, 0.0, 0.0]}, {""species"": [{""element"": ""Gd"", ""occu"": 1}], ""abc"": [0.5, 0.5, 0.5], ""properties"": {""magmom"": 6.901}, ""label"": ""Gd"", ""xyz"": [11.772035895, 0.0, 1.827171665]}, {""species"": [{""element"": ""Se"", ""occu"": 1}], ""abc"": [0.23247316, 0.23247316, 0.23247316], ""properties"": {""magmom"": -0.031}, ""label"": ""Se"", ""xyz"": [5.473364768288157, 0.0, 0.8495367416500228]}, {""species"": [{""element"": ""Se"", ""occu"": 1}], ""abc"": [0.76752684, 0.76752684, 0.76752684], ""properties"": {""magmom"": -0.031}, ""label"": ""Se"", ""xyz"": [18.070707021711844, 0.0, 2.8048065883499773]}]}",RbGdSe2,166,1.298,0.0,0.0191843736949863,0.047632136653374,0.0118207214465057
mp-2455,"{""@module"": ""pymatgen.core.structure"", ""@class"": ""Structure"", ""charge"": 0, ""lattice"": {""matrix"": [[3.04327858, 0.0, 0.0], [0.0, 5.41927134, -0.0], [0.0, 0.0, 6.20976018]], ""pbc"": [true, true, true], ""a"": 3.04327858, ""b"": 5.41927134, ""c"": 6.20976018, ""alpha"": 90.0, ""beta"": 90.0, ""gamma"": 90.0, ""volume"": 102.41355313495791}, ""properties"": {}, ""sites"": [{""species"": [{""element"": ""As"", ""occu"": 1}], ""abc"": [0.5, 0.32910561, 0.86618519], ""properties"": {""magmom"": 0.0}, ""label"": ""As"", ""xyz"": [1.52163929, 1.7835126001062174, 5.378802301367735]}, {""species"": [{""element"": ""As"", ""occu"": 1}], ""abc"": [0.5, 0.6708943900000001, 0.13381481], ""properties"": {""magmom"": 0.0}, ""label"": ""As"", ""xyz"": [1.52163929, 3.6357587398937827, 0.8309578786322658]}, {""species"": [{""element"": ""As"", ""occu"": 1}], ""abc"": [-0.0, 0.17089439, 0.36618519], ""properties"": {""magmom"": 0.0}, ""label"": ""As"", ""xyz"": [0.0, 0.9261230698937826, 2.273922211367734]}, {""species"": [{""element"": ""As"", ""occu"": 1}], ""abc"": [0.0, 0.82910561, 0.6338148100000001], ""properties"": {""magmom"": 0.0}, ""label"": ""As"", ""xyz"": [0.0, 4.493148270106218, 3.935837968632266]}, {""species"": [{""element"": ""Os"", ""occu"": 1}], ""abc"": [0.5, 0.5, 0.5], ""properties"": {""magmom"": 0.0}, ""label"": ""Os"", ""xyz"": [1.52163929, 2.70963567, 3.10488009]}, {""species"": [{""element"": ""Os"", ""occu"": 1}], ""abc"": [-0.0, -0.0, -0.0], ""properties"": {""magmom"": 0.0}, ""label"": ""Os"", ""xyz"": [0.0, 0.0, 0.0]}]}",As2Os,58,0.6728000000000005,0.0,0.6261256010145692,0.9835658918707232,0.1957450780590187
mp-11739,"{""@module"": ""pymatgen.core.structure"", ""@class"": ""Structure"", ""charge"": 0, ""lattice"": {""matrix"": [[8.29989832, -2.35468939, -0.00092504], [8.29989832, 2.35468939, -0.00092504], [7.63231986, -0.0, 4.02250914]], ""pbc"": [true, true, true], ""a"": 8.627448933573376, ""b"": 8.627448933573376, ""c"": 8.627449578336227, ""alpha"": 31.677380507113604, ""beta"": 31.677380507113604, ""gamma"": 31.67738375142152, ""volume"": 157.2625322305681}, ""properties"": {}, ""sites"": [{""species"": [{""element"": ""K"", ""occu"": 1}], ""abc"": [0.5, 0.5, 0.5], ""properties"": {""magmom"": -0.0}, ""label"": ""K"", ""xyz"": [12.11605825, 0.0, 2.0103295300000004]}, {""species"": [{""element"": ""La"", ""occu"": 1}], ""abc"": [0.0, -0.0, -0.0], ""properties"": {""magmom"": 0.0}, ""label"": ""La"", ""xyz"": [0.0, 0.0, 0.0]}, {""species"": [{""element"": ""Te"", ""occu"": 1}], ""abc"": [0.26073622, 0.26073622, 0.26073622], ""properties"": {""magmom"": -0.0}, ""label"": ""Te"", ""xyz"": [6.318190458809631, 0.0, 1.0483314452131534]}, {""species"": [{""element"": ""Te"", ""occu"": 1}], ""abc"": [0.73926378, 0.73926378, 0.73926378], ""properties"": {""magmom"": -0.0}, ""label"": ""Te"", ""xyz"": [17.913926041190372, 0.0, 2.972327614786847]}]}",KLaTe2,166,1.7109,0.0,0.0253935520322527,0.0560625165680015,0.0158248026238729
mp-643002,"{""@module"": ""pymatgen.core.structure"", ""@class"": ""Structure"", ""charge"": 0, ""lattice"": {""matrix"": [[3.317635349999999, 3.317635349999999, 0.0], [0.0, 3.317635349999999, 3.317635349999999], [3.317635349999999, -0.0, 3.317635349999999]], ""pbc"": [true, true, true], ""a"": 4.6918449069784085, ""b"": 4.6918449069784085, ""c"": 4.6918449069784085, ""alpha"": 60.00000000000001, ""beta"": 60.00000000000001, ""gamma"": 60.00000000000001, ""volume"": 73.0324626486626}, ""properties"": {}, ""sites"": [{""species"": [{""element"": ""Mg"", ""occu"": 1}], ""abc"": [0.75, 0.75, 0.75], ""properties"": {""magmom"": -0.0}, ""label"": ""Mg"", ""xyz"": [4.976453024999998, 4.976453024999998, 4.976453024999998]}, {""species"": [{""element"": ""Mg"", ""occu"": 1}], ""abc"": [0.25, 0.25, 0.25], ""properties"": {""magmom"": -0.0}, ""label"": ""Mg"", ""xyz"": [1.6588176749999994, 1.6588176749999994, 1.6588176749999994]}, {""species"": [{""element"": ""H"", ""occu"": 1}], ""abc"": [0.25383545, 0.74616455, 0.74616455], ""properties"": {""magmom"": 0.0}, ""label"": ""H"", ""xyz"": [3.317635349999999, 3.317635349999999, 4.951003775993684]}, {""species"": [{""element"": ""H"", ""occu"": 1}], ""abc"": [0.25383545, 0.25383545, 0.74616455], ""properties"": {""magmom"": 0.0}, ""label"": ""H"", ""xyz"": [3.317635349999999, 1.6842669240063146, 3.317635349999999]}, {""species"": [{""element"": ""H"", ""occu"": 1}], ""abc"": [0.25383545, 0.74616455, 0.25383545], ""properties"": {""magmom"": 0.0}, ""label"": ""H"", ""xyz"": [1.6842669240063146, 3.317635349999999, 3.317635349999999]}, {""species"": [{""element"": ""H"", ""occu"": 1}], ""abc"": [0.74616455, 0.25383545, 0.25383545], ""properties"": {""magmom"": 0.0}, ""label"": ""H"", ""xyz"": [3.317635349999999, 3.317635349999999, 1.6842669240063146]}, {""species"": [{""element"": ""H"", ""occu"": 1}], ""abc"": [0.74616455, 0.74616455, 0.25383545], ""properties"": {""magmom"": 0.0}, ""label"": ""H"", ""xyz"": [3.317635349999999, 4.951003775993684, 3.317635349999999]}, {""species"": [{""element"": ""H"", ""occu"": 1}], ""abc"": [0.74616455, 0.25383545, 0.74616455], ""properties"": {""magmom"": 0.0}, ""label"": ""H"", ""xyz"": [4.951003775993684, 3.317635349999999, 3.317635349999999]}, {""species"": [{""element"": ""Os"", ""occu"": 1}], ""abc"": [-0.0, 0.0, 0.0], ""properties"": {""magmom"": -0.0}, ""label"": ""Os"", ""xyz"": [0.0, 0.0, 0.0]}]}",Mg2H6Os,225,3.3116,0.0,0.0049942266199176,0.0074834058645595,0.0032883750721183
mp-7041,"{""@module"": ""pymatgen.core.structure"", ""@class"": ""Structure"", ""charge"": 0, ""lattice"": {""matrix"": [[3.46269337, 0.00654742, 5.61303042], [1.59700819, 3.07243539, 5.61303042], [0.010758730000000001, 0.00654742, 6.59516822]], ""pbc"": [true, true, true], ""a"": 6.5951799626087535, ""b"": 6.59518042819883, ""c"": 6.595180245382065, ""alpha"": 31.57706668658307, ""beta"": 31.57706325813517, ""gamma"": 31.577066354016925, ""volume"": 69.84267344187121}, ""properties"": {}, ""sites"": [{""species"": [{""element"": ""Ca"", ""occu"": 1}], ""abc"": [0.5, 0.5, 0.5], ""properties"": {""magmom"": -0.0}, ""label"": ""Ca"", ""xyz"": [2.5352301450000003, 1.542765115, 8.91061453]}, {""species"": [{""element"": ""Hg"", ""occu"": 1}], ""abc"": [-0.0, 0.0, 0.0], ""properties"": {""magmom"": 0.0}, ""label"": ""Hg"", ""xyz"": [0.0, 0.0, 0.0]}, {""species"": [{""element"": ""O"", ""occu"": 1}], ""abc"": [0.89434808, 0.89434808, 0.89434808], ""properties"": {""magmom"": 0.0}, ""label"": ""O"", ""xyz"": [4.5347564250777435, 2.759538036982458, 15.938381993051205]}, {""species"": [{""element"": ""O"", ""occu"": 1}], ""abc"": [0.10565192, 0.10565192, 0.10565192], ""properties"": {""magmom"": 0.0}, ""label"": ""O"", ""xyz"": [0.5357038649222567, 0.3259921930175415, 1.8828470669487953]}]}",CaHgO2,166,2.1347,0.0,0.007329785107882,0.0125390187590243,0.0049356068222751
mp-961713,"{""@module"": ""pymatgen.core.structure"", ""@class"": ""Structure"", ""charge"": 0, ""lattice"": {""matrix"": [[3.90752335, 1e-08, 2.25600955], [1.302508459999999, 3.68404636, 2.25600955], [0.0, 0.0, 4.51201809]], ""pbc"": [true, true, true], ""a"": 4.512019261980874, ""b"": 4.512017836920863, ""c"": 4.51201809, ""alpha"": 59.99999073976988, ""beta"": 60.000001187557906, ""gamma"": 59.99998163155355, ""volume"": 64.95274360568592}, ""properties"": {}, ""sites"": [{""species"": [{""element"": ""Zr"", ""occu"": 1}], ""abc"": [0.5, 0.5, 0.5], ""properties"": {""magmom"": -0.0}, ""label"": ""Zr"", ""xyz"": [2.6050159049999992, 1.842023185, 4.512018595]}, {""species"": [{""element"": ""Sn"", ""occu"": 1}], ""abc"": [-0.0, 0.0, 0.0], ""properties"": {""magmom"": 0.0}, ""label"": ""Sn"", ""xyz"": [0.0, 0.0, 0.0]}, {""species"": [{""element"": ""Pt"", ""occu"": 1}], ""abc"": [0.25, 0.25, 0.25], ""properties"": {""magmom"": 0.0}, ""label"": ""Pt"", ""xyz"": [1.3025079524999996, 0.9210115925, 2.2560092975]}]}",ZrSnPt,216,0.9891999999999994,0.0,0.0845464925134222,0.3571370134130011,0.0494823709616076