id,structure_json,formula,spacegroup,bandgap,energy_above_hull,k_1064,k_755,k_1500
mp-7972,"{""@module"": ""pymatgen.core.structure"", ""@class"": ""Structure"", ""charge"": 0, ""lattice"": {""matrix"": [[6.62230266, -1.86659247, -0.00373123], [6.62230266, 1.86659247, -0.00373123], [6.09797388, -0.0, 3.18650003]], ""pbc"": [true, true, true], ""a"": 6.880339663983246, ""b"": 6.880339663983246, ""c"": 6.880339227273046, ""alpha"": 31.482516152750815, ""beta"": 31.482516152750815, ""gamma"": 31.482522295225625, ""volume"": 78.86248868556612}, ""properties"": {}, ""sites"": [{""species"": [{""element"": ""Rb"", ""occu"": 1}], ""abc"": [-0.0, -0.0, 0.0], ""properties"": {""magmom"": 0.0}, ""label"": ""Rb"", ""xyz"": [0.0, 0.0, 0.0]}, {""species"": [{""element"": ""La"", ""occu"": 1}], ""abc"": [0.5, 0.5, 0.5], ""properties"": {""magmom"": -0.0}, ""label"": ""La"", ""xyz"": [9.6712896, 0.0, 1.5895187849999999]}, {""species"": [{""element"": ""O"", ""occu"": 1}], ""abc"": [0.7724885300000001, 0.7724885300000001, 0.7724885300000001], ""properties"": {""magmom"": 0.0}, ""label"": ""O"", ""xyz"": [14.941920572616576, 0.0, 2.455770059264072]}, {""species"": [{""element"": ""O"", ""occu"": 1}], ""abc"": [0.22751147, 0.22751147, 0.22751147], ""properties"": {""magmom"": 0.0}, ""label"": ""O"", ""xyz"": [4.400658627383424, 0.0, 0.7232675107359279]}]}",RbLaO2,166,3.5226,0.0,0.0034867398288533,0.0053528385868006,0.0023584548178754
mp-22939,"{""@module"": ""pymatgen.core.structure"", ""@class"": ""Structure"", ""charge"": 0, ""lattice"": {""matrix"": [[3.8933967, 0.0, 0.0], [-0.0, 3.8933967, 0.0], [-0.0, -0.0, 7.49318875]], ""pbc"": [true, true, true], ""a"": 3.8933967, ""b"": 3.8933967, ""c"": 7.49318875, ""alpha"": 90.0, ""beta"": 90.0, ""gamma"": 90.0, ""volume"": 113.58578538575841}, ""properties"": {}, ""sites"": [{""species"": [{""element"": ""Bi"", ""occu"": 1}], ""abc"": [0.75, 0.75, 0.83230267], ""properties"": {""magmom"": -0.0}, ""label"": ""Bi"", ""xyz"": [2.9200475249999998, 2.9200475249999998, 6.236601003438962]}, {""species"": [{""element"": ""Bi"", ""occu"": 1}], ""abc"": [0.25, 0.25, 0.16769733], ""properties"": {""magmom"": -0.0}, ""label"": ""Bi"", ""xyz"": [0.973349175, 0.973349175, 1.2565877465610376]}, {""species"": [{""element"": ""Cl"", ""occu"": 1}], ""abc"": [0.25, 0.25, 0.65357837], ""properties"": {""magmom"": -0.0}, ""label"": ""Cl"", ""xyz"": [0.973349175, 0.973349175, 4.8973860893273375]}, {""species"": [{""element"": ""Cl"", ""occu"": 1}], ""abc"": [0.75, 0.75, 0.34642163], ""properties"": {""magmom"": -0.0}, ""label"": ""Cl"", ""xyz"": [2.9200475249999998, 2.9200475249999998, 2.5958026606726623]}, {""species"": [{""element"": ""O"", ""occu"": 1}], ""abc"": [0.75, 0.25, -0.0], ""properties"": {""magmom"": -0.0}, ""label"": ""O"", ""xyz"": [2.9200475249999998, 0.973349175, 0.0]}, {""species"": [{""element"": ""O"", ""occu"": 1}], ""abc"": [0.25, 0.75, -0.0], ""properties"": {""magmom"": -0.0}, ""label"": ""O"", ""xyz"": [0.973349175, 2.9200475249999998, 0.0]}]}",BiClO,129,2.6274,0.0,0.0080404503553686,0.0127322654790798,0.0054407017869823
mp-626620,"{""@module"": ""pymatgen.core.structure"", ""@class"": ""Structure"", ""charge"": 0, ""lattice"": {""matrix"": [[2.0588963, -5.3940448100000005, 0.0], [2.0588963, 5.3940448100000005, 0.0], [0.0, 0.0, 4.20268733]], ""pbc"": [true, true, true], ""a"": 5.773627402806803, ""b"": 5.773627402806803, ""c"": 4.20268733, ""alpha"": 90.0, ""beta"": 90.0, ""gamma"": 138.21648562003375, ""volume"": 93.3482325569128}, ""properties"": {}, ""sites"": [{""species"": [{""element"": ""Rb"", ""occu"": 1}], ""abc"": [0.63821008, 0.36178992, 0.2610599], ""properties"": {""magmom"": -0.0}, ""label"": ""Rb"", ""xyz"": [2.0588963, -1.49102272942737, 1.097153134101067]}, {""species"": [{""element"": ""Rb"", ""occu"": 1}], ""abc"": [0.36178992, 0.63821008, 0.7610599], ""properties"": {""magmom"": -0.0}, ""label"": ""Rb"", ""xyz"": [2.0588963, 1.49102272942737, 3.198496799101067]}, {""species"": [{""element"": ""H"", ""occu"": 1}], ""abc"": [0.9677516500000001, 0.03224835, 0.39679226], ""properties"": {""magmom"": -0.0}, ""label"": ""H"", ""xyz"": [2.0588963, -5.046146720102874, 1.6675938037440659]}, {""species"": [{""element"": ""H"", ""occu"": 1}], ""abc"": [0.03224835, 0.9677516500000001, 0.89679226], ""properties"": {""magmom"": -0.0}, ""label"": ""H"", ""xyz"": [2.0588963, 5.046146720102874, 3.7689374687440655]}, {""species"": [{""element"": ""O"", ""occu"": 1}], ""abc"": [0.9017909, 0.0982091, 0.23753985], ""properties"": {""magmom"": -0.0}, ""label"": ""O"", ""xyz"": [2.0588963, -4.334556237700458, 0.9983057179651005]}, {""species"": [{""element"": ""O"", ""occu"": 1}], ""abc"": [0.0982091, 0.9017909, 0.73753985], ""properties"": {""magmom"": -0.0}, ""label"": ""O"", ""xyz"": [2.0588963, 4.334556237700458, 3.0996493829651004]}]}",RbHO,36,3.4648,0.0,0.001661065497887,0.0025071800649144,0.0011173874939067
mp-8584,"{""@module"": ""pymatgen.core.structure"", ""@class"": ""Structure"", ""charge"": 0, ""lattice"": {""matrix"": [[3.92714361, 0.0056478200000000004, 6.1664480600000005], [1.80108375, 3.48978374, 6.1664480600000005], [0.00925625, 0.0056478200000000004, 7.31077703]], ""pbc"": [true, true, true], ""a"": 7.310784534378808, ""b"": 7.3107848349654105, ""c"": 7.310785071277259, ""alpha"": 32.41874864772387, ""beta"": 32.418741800856154, ""gamma"": 32.418745818683256, ""volume"": 99.8460568220724}, ""properties"": {}, ""sites"": [{""species"": [{""element"": ""Na"", ""occu"": 1}], ""abc"": [0.5, 0.5, 0.5], ""properties"": {""magmom"": -0.0}, ""label"": ""Na"", ""xyz"": [2.868741805, 1.75053969, 9.821836575]}, {""species"": [{""element"": ""Er"", ""occu"": 1}], ""abc"": [0.0, -0.0, 0.0], ""properties"": {""magmom"": -0.0}, ""label"": ""Er"", ""xyz"": [0.0, 0.0, 0.0]}, {""species"": [{""element"": ""Se"", ""occu"": 1}], ""abc"": [0.25701421, 0.25701421, 0.25701421], ""properties"": {""magmom"": 0.0}, ""label"": ""Se"", ""xyz"": [1.4746148174120983, 0.8998271509979899, 5.048703136145462]}, {""species"": [{""element"": ""Se"", ""occu"": 1}], ""abc"": [0.74298579, 0.74298579, 0.74298579], ""properties"": {""magmom"": 0.0}, ""label"": ""Se"", ""xyz"": [4.262868792587902, 2.6012522290020104, 14.594970013854539]}]}",NaErSe2,166,1.9404,0.0,0.0146274837013454,0.025055977189472,0.0094667322363157
mp-1228342,"{""@module"": ""pymatgen.core.structure"", ""@class"": ""Structure"", ""charge"": 0.0, ""lattice"": {""matrix"": [[-2.08100688, 2.08100688, 6.8057377500000005], [2.08100688, -2.08100688, 6.8057377500000005], [2.08100688, 2.08100688, -6.8057377500000005]], ""pbc"": [true, true, true], ""a"": 7.414799093096841, ""b"": 7.414799093096841, ""c"": 7.414799093096841, ""alpha"": 147.4012942278164, ""beta"": 147.4012942278164, ""gamma"": 46.76996583092175, ""volume"": 117.89142942402337}, ""properties"": {}, ""sites"": [{""species"": [{""element"": ""Ba"", ""occu"": 1}], ""abc"": [0.63659736, 0.63659736, -0.0], ""properties"": {""magmom"": 0.0}, ""label"": ""Ba"", ""xyz"": [0.0, 0.0, 8.66502936900468]}, {""species"": [{""element"": ""Ba"", ""occu"": 1}], ""abc"": [0.36134556, 0.36134556, 0.0], ""properties"": {""magmom"": -0.0}, ""label"": ""Ba"", ""xyz"": [0.0, 0.0, 4.9184462369737805]}, {""species"": [{""element"": ""Sc"", ""occu"": 1}], ""abc"": [0.98739628, 0.98739628, 0.0], ""properties"": {""magmom"": -0.0}, ""label"": ""Sc"", ""xyz"": [0.0, 0.0, 13.439920274011142]}, {""species"": [{""element"": ""O"", ""occu"": 1}], ""abc"": [0.00597757, 0.50597757, 0.5], ""properties"": {""magmom"": 0.0}, ""label"": ""O"", ""xyz"": [2.0810068799999994, 2.220446049250313e-16, 0.08136354760453468]}, {""species"": [{""element"": ""O"", ""occu"": 1}], ""abc"": [0.50597757, 0.00597757, 0.5], ""properties"": {""magmom"": 0.0}, ""label"": ""O"", ""xyz"": [2.220446049250313e-16, 2.0810068799999994, 0.08136354760453468]}, {""species"": [{""element"": ""O"", ""occu"": 1}], ""abc"": [0.83817429, 0.83817429, -0.0], ""properties"": {""magmom"": 0.0}, ""label"": ""O"", ""xyz"": [0.0, 0.0, 11.408788813064895]}, {""species"": [{""element"": ""F"", ""occu"": 1}], ""abc"": [0.16453238, 0.16453238, -0.0], ""properties"": {""magmom"": -0.0}, ""label"": ""F"", ""xyz"": [0.0, 0.0, 2.2395284593266904]}]}",Ba2ScO3F,107,3.6073,0.0,0.0033517031871628,0.0050750351065811,0.0023048433416676
mp-13277,"{""@module"": ""pymatgen.core.structure"", ""@class"": ""Structure"", ""charge"": 0, ""lattice"": {""matrix"": [[4.52361713, -1e-08, -0.0], [-2.26180908, 3.917568359999999, -0.0], [0.0, 0.0, 8.75238429]], ""pbc"": [true, true, true], ""a"": 4.52361713, ""b"": 4.523618260822141, ""c"": 8.75238429, ""alpha"": 90.0, ""beta"": 90.0, ""gamma"": 119.99999938938004, ""volume"": 155.10607242231282}, ""properties"": {}, ""sites"": [{""species"": [{""element"": ""Ba"", ""occu"": 1}], ""abc"": [-0.0, -0.0, 0.0], ""properties"": {""magmom"": 0.0}, ""label"": ""Ba"", ""xyz"": [0.0, 0.0, 0.0]}, {""species"": [{""element"": ""Ba"", ""occu"": 1}], ""abc"": [-0.0, -0.0, 0.5], ""properties"": {""magmom"": 0.0}, ""label"": ""Ba"", ""xyz"": [0.0, 0.0, 4.376192145]}, {""species"": [{""element"": ""Li"", ""occu"": 1}], ""abc"": [0.333333, 0.666667, 0.25], ""properties"": {""magmom"": 0.0}, ""label"": ""Li"", ""xyz"": [-2.6051420700667904e-06, 2.6117135425227893, 2.1880960725]}, {""species"": [{""element"": ""Li"", ""occu"": 1}], ""abc"": [0.666667, 0.333333, 0.75], ""properties"": {""magmom"": 0.0}, ""label"": ""Li"", ""xyz"": [2.26181065514207, 1.3058548074772094, 6.5642882175]}, {""species"": [{""element"": ""P"", ""occu"": 1}], ""abc"": [0.333333, 0.666667, 0.75], ""properties"": {""magmom"": -0.0}, ""label"": ""P"", ""xyz"": [-2.6051420700667904e-06, 2.6117135425227893, 6.5642882175]}, {""species"": [{""element"": ""P"", ""occu"": 1}], ""abc"": [0.666667, 0.333333, 0.25], ""properties"": {""magmom"": -0.0}, ""label"": ""P"", ""xyz"": [2.26181065514207, 1.3058548074772094, 2.1880960725]}]}",BaLiP,194,0.9708,0.0,0.2589295504853297,0.6953183719155495,0.0704271848237692
mp-1018737,"{""@module"": ""pymatgen.core.structure"", ""@class"": ""Structure"", ""charge"": 0, ""lattice"": {""matrix"": [[4.44860499, 0.0, 0.0], [-0.0, 4.44860499, 0.0], [-0.0, -0.0, 7.54192427]], ""pbc"": [true, true, true], ""a"": 4.44860499, ""b"": 4.44860499, ""c"": 7.54192427, ""alpha"": 90.0, ""beta"": 90.0, ""gamma"": 90.0, ""volume"": 149.25533260165312}, ""properties"": {}, ""sites"": [{""species"": [{""element"": ""K"", ""occu"": 1}], ""abc"": [0.75, 0.75, 0.35970633], ""properties"": {""magmom"": 0.0}, ""label"": ""K"", ""xyz"": [3.3364537425, 3.3364537425, 2.7128779002996293]}, {""species"": [{""element"": ""K"", ""occu"": 1}], ""abc"": [0.25, 0.25, 0.64029367], ""properties"": {""magmom"": 0.0}, ""label"": ""K"", ""xyz"": [1.1121512475, 1.1121512475, 4.829046369700372]}, {""species"": [{""element"": ""Mg"", ""occu"": 1}], ""abc"": [0.75, 0.25, 0.0], ""properties"": {""magmom"": 0.0}, ""label"": ""Mg"", ""xyz"": [3.3364537425, 1.1121512475, 0.0]}, {""species"": [{""element"": ""Mg"", ""occu"": 1}], ""abc"": [0.25, 0.75, 0.0], ""properties"": {""magmom"": 0.0}, ""label"": ""Mg"", ""xyz"": [1.1121512475, 3.3364537425, 0.0]}, {""species"": [{""element"": ""P"", ""occu"": 1}], ""abc"": [0.75, 0.75, 0.81486241], ""properties"": {""magmom"": -0.0}, ""label"": ""P"", ""xyz"": [3.3364537425, 3.3364537425, 6.145630586689691]}, {""species"": [{""element"": ""P"", ""occu"": 1}], ""abc"": [0.25, 0.25, 0.18513759], ""properties"": {""magmom"": -0.0}, ""label"": ""P"", ""xyz"": [1.1121512475, 1.1121512475, 1.3962936833103092]}]}",KMgP,129,1.6875,0.0,0.0220384381079875,0.0731551863952043,0.0132467863228085
mp-4524,"{""@module"": ""pymatgen.core.structure"", ""@class"": ""Structure"", ""charge"": 0, ""lattice"": {""matrix"": [[4.95594488, -0.0, -2.2492603], [-1.02082956, 4.84966902, -2.2492603], [0.00808946, 0.00997047, 6.60233588]], ""pbc"": [true, true, true], ""a"": 5.442477519545148, ""b"": 5.442476870991153, ""c"": 6.602348364178498, ""alpha"": 114.34073209462082, ""beta"": 114.3407370593062, ""gamma"": 90.00000606232584, ""volume"": 158.9073890850488}, ""properties"": {}, ""sites"": [{""species"": [{""element"": ""Zn"", ""occu"": 1}], ""abc"": [0.25, 0.75, 0.5], ""properties"": {""magmom"": -0.0}, ""label"": ""Zn"", ""xyz"": [0.47740878000000003, 3.642237, 1.05190764]}, {""species"": [{""element"": ""Zn"", ""occu"": 1}], ""abc"": [-0.0, 0.0, -0.0], ""properties"": {""magmom"": -0.0}, ""label"": ""Zn"", ""xyz"": [0.0, 0.0, 0.0]}, {""species"": [{""element"": ""Ge"", ""occu"": 1}], ""abc"": [0.75, 0.25, 0.5], ""properties"": {""magmom"": 0.0}, ""label"": ""Ge"", ""xyz"": [3.4657959999999997, 1.21740249, 1.05190764]}, {""species"": [{""element"": ""Ge"", ""occu"": 1}], ""abc"": [0.5, 0.5, -0.0], ""properties"": {""magmom"": 0.0}, ""label"": ""Ge"", ""xyz"": [1.9675576599999998, 2.42483451, -2.2492603]}, {""species"": [{""element"": ""P"", ""occu"": 1}], ""abc"": [0.625, 0.1295625, 0.75], ""properties"": {""magmom"": 0.0}, ""label"": ""P"", ""xyz"": [2.9712714151325, 0.63581309490375, 3.2545444348812507]}, {""species"": [{""element"": ""P"", ""occu"": 1}], ""abc"": [0.8704375, 0.875, 0.25], ""properties"": {""magmom"": 0.0}, ""label"": ""P"", ""xyz"": [3.422636771485, 4.24595301, -2.27535930488125]}, {""species"": [{""element"": ""P"", ""occu"": 1}], ""abc"": [0.379562499999999, 0.375, 0.25], ""properties"": {""magmom"": 0.0}, ""label"": ""P"", ""xyz"": [1.500302108514995, 1.8211185, -0.0466235051187478]}, {""species"": [{""element"": ""P"", ""occu"": 1}], ""abc"": [0.125, 0.6204375, 0.75], ""properties"": {""magmom"": 0.0}, ""label"": ""P"", ""xyz"": [-0.007800735132499926, 3.01639437509625, 3.2750689351187505]}]}",ZnGeP2,122,1.1634999999999995,0.0,0.159725143505503,0.1794187917798759,0.0376113430078046
mp-8128,"{""@module"": ""pymatgen.core.structure"", ""@class"": ""Structure"", ""charge"": 0, ""lattice"": {""matrix"": [[4.40138595, 0.0, -1.76100249], [-0.70457946, 4.34462518, -1.7610024800000001], [0.01956231, 0.02299088, 6.42973136]], ""pbc"": [true, true, true], ""a"": 4.740604186244998, ""b"": 4.740604381796701, ""c"": 6.429802222953919, ""alpha"": 111.63196657124399, ""beta"": 111.63197224487756, ""gamma"": 89.99999078030609, ""volume"": 123.30811077389036}, ""properties"": {}, ""sites"": [{""species"": [{""element"": ""Na"", ""occu"": 1}], ""abc"": [0.125, 0.875, 0.25], ""properties"": {""magmom"": -0.0}, ""label"": ""Na"", ""xyz"": [-0.0614432062500001, 3.8072947525000003, -0.15356964125000028]}, {""species"": [{""element"": ""Na"", ""occu"": 1}], ""abc"": [0.875, 0.125, 0.75], ""properties"": {""magmom"": -0.0}, ""label"": ""Na"", ""xyz"": [3.77781200625, 0.5603213075000001, 3.0612960312500004]}, {""species"": [{""element"": ""Nd"", ""occu"": 1}], ""abc"": [0.375, 0.625, 0.75], ""properties"": {""magmom"": -0.0}, ""label"": ""Nd"", ""xyz"": [1.22482930125, 2.7326338975000004, 3.0612960362500004]}, {""species"": [{""element"": ""Nd"", ""occu"": 1}], ""abc"": [0.625, 0.375, 0.25], ""properties"": {""magmom"": -0.0}, ""label"": ""Nd"", ""xyz"": [2.4915394987499995, 1.6349821625, -0.15356964625000002]}, {""species"": [{""element"": ""O"", ""occu"": 1}], ""abc"": [0.15574773, 0.40574773000000003, 0.31149545], ""properties"": {""magmom"": 0.0}, ""label"": ""O"", ""xyz"": [0.4057179246232571, 1.7699833589973377, 1.0140371642360937]}, {""species"": [{""element"": ""O"", ""occu"": 1}], ""abc"": [0.40574773000000003, 0.15574773, 0.81149545], ""properties"": {""magmom"": 0.0}, ""label"": ""O"", ""xyz"": [1.6919904321232573, 0.6953225039973375, 4.228902841736094]}, {""species"": [{""element"": ""O"", ""occu"": 1}], ""abc"": [0.59425227, 0.84425227, 0.18850455], ""properties"": {""magmom"": 0.0}, ""label"": ""O"", ""xyz"": [2.024378367876743, 3.6722935560026633, -1.3211764517360942]}, {""species"": [{""element"": ""O"", ""occu"": 1}], ""abc"": [0.84425227, 0.59425227, 0.68850455], ""properties"": {""magmom"": 0.0}, ""label"": ""O"", ""xyz"": [3.310650875376743, 2.597632701002663, 1.8936892257639055]}]}",NaNdO2,141,3.3463000000000003,0.0,0.0035762427214587,0.005466192413284,0.0023886173330139
mp-5694,"{""@module"": ""pymatgen.core.structure"", ""@class"": ""Structure"", ""charge"": 0, ""lattice"": {""matrix"": [[-1.97279619, -3.41698439, 0.0], [1.97279619, -3.41698439, 0.0], [0.0, -2.2779896, 6.61194973]], ""pbc"": [true, true, true], ""a"": 3.945593381074916, ""b"": 3.945593381074916, ""c"": 6.993362270736104, ""alpha"": 73.6146808412049, ""beta"": 73.6146808412049, ""gamma"": 59.999983214038004, ""volume"": 89.14248856297058}, ""properties"": {}, ""sites"": [{""species"": [{""element"": ""Na"", ""occu"": 1}], ""abc"": [0.5, 0.5, 0.5], ""properties"": {""magmom"": -0.0}, ""label"": ""Na"", ""xyz"": [0.0, -4.55597919, 3.305974865]}, {""species"": [{""element"": ""Ho"", ""occu"": 1}], ""abc"": [0.0, 0.0, -0.0], ""properties"": {""magmom"": -0.0}, ""label"": ""Ho"", ""xyz"": [0.0, 0.0, 0.0]}, {""species"": [{""element"": ""S"", ""occu"": 1}], ""abc"": [0.2575306, 0.2575306, 0.22740721], ""properties"": {""magmom"": 0.0}, ""label"": ""S"", ""xyz"": [0.0, -2.277987339639684, 1.5036050407595534]}, {""species"": [{""element"": ""S"", ""occu"": 1}], ""abc"": [0.7424694, 0.7424694, 0.77259279], ""properties"": {""magmom"": 0.0}, ""label"": ""S"", ""xyz"": [0.0, -6.833971040360316, 5.108344689240447]}]}",NaHoS2,166,2.3131,0.0,0.0097314788284659,0.0162332402949757,0.0064452379770932
mp-6949,"{""@module"": ""pymatgen.core.structure"", ""@class"": ""Structure"", ""charge"": 0, ""lattice"": {""matrix"": [[4.71939176, 0.09218011, 3.29099405], [1.76619646, 4.37740962, 3.29099405], [0.13375828, 0.09218011, 5.75199163]], ""pbc"": [true, true, true], ""a"": 5.754285150578733, ""b"": 5.754285946468117, ""c"": 5.754285026112125, ""alpha"": 53.77103331599926, ""beta"": 53.771024514776315, ""gamma"": 53.77103159327572, ""volume"": 115.11001891853095}, ""properties"": {}, ""sites"": [{""species"": [{""element"": ""In"", ""occu"": 1}], ""abc"": [0.5, 0.5, 0.5], ""properties"": {""magmom"": -0.0}, ""label"": ""In"", ""xyz"": [3.30967325, 2.28088492, 6.166989865]}, {""species"": [{""element"": ""In"", ""occu"": 1}], ""abc"": [0.0, -0.0, 0.0], ""properties"": {""magmom"": -0.0}, ""label"": ""In"", ""xyz"": [0.0, 0.0, 0.0]}, {""species"": [{""element"": ""F"", ""occu"": 1}], ""abc"": [0.39570922000000003, 0.75, 0.10429078], ""properties"": {""magmom"": 0.0}, ""label"": ""F"", ""xyz"": [3.2061039325766854, 3.32914727, 4.370401919696312]}, {""species"": [{""element"": ""F"", ""occu"": 1}], ""abc"": [0.75, 0.10429078, 0.39570922000000003], ""properties"": {""magmom"": 0.0}, ""label"": ""F"", ""xyz"": [3.77667121109398, 0.5621350655769177, 5.0875819953036885]}, {""species"": [{""element"": ""F"", ""occu"": 1}], ""abc"": [0.89570922, 0.60429078, 0.25], ""properties"": {""magmom"": 0.0}, ""label"": ""F"", ""xyz"": [5.327938518670665, 2.7508398755769177, 6.3744889825]}, {""species"": [{""element"": ""F"", ""occu"": 1}], ""abc"": [0.25, 0.89570922, 0.60429078], ""properties"": {""magmom"": 0.0}, ""label"": ""F"", ""xyz"": [2.8426752889060194, 3.999634774423082, 7.246397734696313]}, {""species"": [{""element"": ""F"", ""occu"": 1}], ""abc"": [0.60429078, 0.25, 0.89570922], ""properties"": {""magmom"": 0.0}, ""label"": ""F"", ""xyz"": [3.413242567423314, 1.23262257, 7.963577810303688]}, {""species"": [{""element"": ""F"", ""occu"": 1}], ""abc"": [0.10429078, 0.39570922000000003, 0.75], ""properties"": {""magmom"": 0.0}, ""label"": ""F"", ""xyz"": [1.291407981329334, 1.8109299644230825, 5.9594907475]}]}",InF3,167,4.033799999999999,0.0,0.0012115003792829,0.0018519336006198,0.0008499081277662