id,structure_json,formula,spacegroup,bandgap,energy_above_hull,k_1064,k_755,k_1500
mp-6867,"{""@module"": ""pymatgen.core.structure"", ""@class"": ""Structure"", ""charge"": 0, ""lattice"": {""matrix"": [[2.582100999999999, -4.472331, 0.0], [2.582100999999999, 4.472331, 0.0], [0.0, 0.0, 4.507312]], ""pbc"": [true, true, true], ""a"": 5.16420276013268, ""b"": 5.16420276013268, ""c"": 4.507312, ""alpha"": 90.0, ""beta"": 90.0, ""gamma"": 120.00000973818703, ""volume"": 104.10097123019978}, ""properties"": {}, ""sites"": [{""species"": [{""element"": ""K"", ""occu"": 1}], ""abc"": [0.0, 0.0, 0.0], ""properties"": {""magmom"": 0.0}, ""label"": ""K"", ""xyz"": [0.0, 0.0, 0.0]}, {""species"": [{""element"": ""Ca"", ""occu"": 1}], ""abc"": [0.333333, 0.666667, 0.5], ""properties"": {""magmom"": 0.0}, ""label"": ""Ca"", ""xyz"": [2.582100999999999, 1.490779981554, 2.253656]}, {""species"": [{""element"": ""C"", ""occu"": 1}], ""abc"": [0.666667, 0.333333, 0.5], ""properties"": {""magmom"": 0.0}, ""label"": ""C"", ""xyz"": [2.582100999999999, -1.490779981554, 2.253656]}, {""species"": [{""element"": ""O"", ""occu"": 1}], ""abc"": [0.811835, 0.623671, 0.5], ""properties"": {""magmom"": -0.0}, ""label"": ""O"", ""xyz"": [3.7066214781059985, -0.841531690284, 2.253656]}, {""species"": [{""element"": ""O"", ""occu"": 1}], ""abc"": [0.376328999999999, 0.188165, 0.5], ""properties"": {""magmom"": -0.0}, ""label"": ""O"", ""xyz"": [1.4575805218939968, -0.8415316902839955, 2.253656]}, {""species"": [{""element"": ""O"", ""occu"": 1}], ""abc"": [0.811835, 0.188165, 0.5], ""properties"": {""magmom"": -0.0}, ""label"": ""O"", ""xyz"": [2.582100999999999, -2.7892586747699992, 2.253656]}, {""species"": [{""element"": ""F"", ""occu"": 1}], ""abc"": [0.333333, 0.666667, 0.0], ""properties"": {""magmom"": 0.0}, ""label"": ""F"", ""xyz"": [2.582100999999999, 1.490779981554, 0.0]}]}",KCaCO3F,187,4.357900000000001,0.0,0.0011107354210705,0.001622932609784,0.0007592607746846
mp-1207082,"{""@module"": ""pymatgen.core.structure"", ""@class"": ""Structure"", ""charge"": 0, ""lattice"": {""matrix"": [[-0.0, 3.31183599, 3.31183599], [3.31183599, 0.0, 3.31183599], [3.31183599, 3.31183599, -0.0]], ""pbc"": [true, true, true], ""a"": 4.683643373413326, ""b"": 4.683643373413326, ""c"": 4.683643373413326, ""alpha"": 60.00000000000001, ""beta"": 60.00000000000001, ""gamma"": 60.00000000000001, ""volume"": 72.65014069787703}, ""properties"": {}, ""sites"": [{""species"": [{""element"": ""Li"", ""occu"": 1}], ""abc"": [0.5, 0.5, 0.5], ""properties"": {""magmom"": -0.0}, ""label"": ""Li"", ""xyz"": [3.31183599, 3.31183599, 3.31183599]}, {""species"": [{""element"": ""Mg"", ""occu"": 1}], ""abc"": [-0.0, 0.0, -0.0], ""properties"": {""magmom"": -0.0}, ""label"": ""Mg"", ""xyz"": [0.0, 0.0, 0.0]}, {""species"": [{""element"": ""Sb"", ""occu"": 1}], ""abc"": [0.25, 0.25, 0.25], ""properties"": {""magmom"": 0.0}, ""label"": ""Sb"", ""xyz"": [1.655917995, 1.655917995, 1.655917995]}]}",LiMgSb,216,1.2308000000000003,0.0,0.037068394060265,0.1120780327928786,0.022572105757135
mp-5273,"{""@module"": ""pymatgen.core.structure"", ""@class"": ""Structure"", ""charge"": 0, ""lattice"": {""matrix"": [[8.29564909, -2.3266303600000002, -0.01225149], [8.29564909, 2.3266303600000002, -0.01225149], [7.64898726, -0.0, 3.96536765]], ""pbc"": [true, true, true], ""a"": 8.615750272349981, ""b"": 8.615750272349981, ""c"": 8.615749921121715, ""alpha"": 31.3337521486744, ""beta"": 31.3337521486744, ""gamma"": 31.33375219932681, ""volume"": 153.50646455574145}, ""properties"": {}, ""sites"": [{""species"": [{""element"": ""K"", ""occu"": 1}], ""abc"": [0.5, 0.5, 0.5], ""properties"": {""magmom"": 0.0}, ""label"": ""K"", ""xyz"": [12.12014272, 0.0, 1.9704323350000001]}, {""species"": [{""element"": ""Pr"", ""occu"": 1}], ""abc"": [-0.0, -0.0, -0.0], ""properties"": {""magmom"": -0.0}, ""label"": ""Pr"", ""xyz"": [0.0, 0.0, 0.0]}, {""species"": [{""element"": ""Te"", ""occu"": 1}], ""abc"": [0.260866, 0.260866, 0.260866], ""properties"": {""magmom"": 0.0}, ""label"": ""Te"", ""xyz"": [6.32346630159104, 0.0, 1.02803760300422]}, {""species"": [{""element"": ""Te"", ""occu"": 1}], ""abc"": [0.739134, 0.739134, 0.739134], ""properties"": {""magmom"": 0.0}, ""label"": ""Te"", ""xyz"": [17.916819138408957, 0.0, 2.91282706699578]}]}",KPrTe2,166,1.2759,0.0,0.0387227588052811,0.1051428915336344,0.0210128677487093
mp-2758,"{""@module"": ""pymatgen.core.structure"", ""@class"": ""Structure"", ""charge"": 0, ""lattice"": {""matrix"": [[3.84534342, -2e-08, 2.22010986], [1.28178045, 3.62542622, 2.22010986], [-2e-08, -1e-08, 4.44022279]], ""pbc"": [true, true, true], ""a"": 4.440220017995338, ""b"": 4.440221186960725, ""c"": 4.44022279, ""alpha"": 60.00001113656876, ""beta"": 60.00000247814774, ""gamma"": 60.00001933580739, ""volume"": 61.901185586472266}, ""properties"": {}, ""sites"": [{""species"": [{""element"": ""Sr"", ""occu"": 1}], ""abc"": [-0.0, 0.0, 0.0], ""properties"": {""magmom"": -0.0}, ""label"": ""Sr"", ""xyz"": [0.0, 0.0, 0.0]}, {""species"": [{""element"": ""Se"", ""occu"": 1}], ""abc"": [0.5, 0.5, 0.5], ""properties"": {""magmom"": 0.0}, ""label"": ""Se"", ""xyz"": [2.563561925, 1.812713095, 4.440221255]}]}",SrSe,225,2.2534,0.0,0.0100046134526707,0.016613205760204,0.0066889160153393
mp-27419,"{""@module"": ""pymatgen.core.structure"", ""@class"": ""Structure"", ""charge"": 0, ""lattice"": {""matrix"": [[4.52305119, 0.033357399999999, 3.13813948], [1.65985857, 4.20814778, 3.13810117], [0.04862484, 0.03336771, 5.50500383]], ""pbc"": [true, true, true], ""a"": 5.505181575518636, ""b"": 5.5055714656951595, ""c"": 5.5053196952992955, ""alpha"": 54.74269736061316, ""beta"": 54.73952780339844, ""gamma"": 54.74304297593337, ""volume"": 103.53876603093516}, ""properties"": {}, ""sites"": [{""species"": [{""element"": ""Li"", ""occu"": 1}], ""abc"": [0.49997481, 0.50001626, 0.49998558], ""properties"": {""magmom"": -0.0}, ""label"": ""Li"", ""xyz"": [3.1156796524706794, 2.137503548047618, 5.890514833636294]}, {""species"": [{""element"": ""Bi"", ""occu"": 1}], ""abc"": [1.561e-05, 3.168e-05, -3.9840000000000005e-05], ""properties"": {""magmom"": -0.0}, ""label"": ""Bi"", ""xyz"": [0.00012125193494789999, 0.000132505461118, -7.091795023879998e-05]}, {""species"": [{""element"": ""F"", ""occu"": 1}], ""abc"": [0.74709057, 0.10786852, 0.39679737], ""properties"": {""magmom"": 0.0}, ""label"": ""F"", ""xyz"": [3.5774695876601657, 0.49208789152052557, 4.867347783254798]}, {""species"": [{""element"": ""F"", ""occu"": 1}], ""abc"": [0.39677195, 0.74706772, 0.10789175000000001], ""properties"": {""magmom"": 0.0}, ""label"": ""F"", ""xyz"": [3.0398928170995503, 3.1606067486979836, 4.183444304028221]}, {""species"": [{""element"": ""F"", ""occu"": 1}], ""abc"": [0.10788338, 0.39676473, 0.74705505], ""properties"": {""magmom"": 0.0}, ""label"": ""F"", ""xyz"": [1.1828608199319004, 1.6981708430542468, 5.696181868912419]}, {""species"": [{""element"": ""F"", ""occu"": 1}], ""abc"": [0.60322072, 0.25289549, 0.8921621], ""properties"": {""magmom"": 0.0}, ""label"": ""F"", ""xyz"": [3.1915501811860705, 1.1141128758866305, 7.597958167123592]}, {""species"": [{""element"": ""F"", ""occu"": 1}], ""abc"": [0.8921516500000001, 0.6032434600000001, 0.25290033], ""properties"": {""magmom"": 0.0}, ""label"": ""F"", ""xyz"": [5.048843647152613, 2.5767361913185725, 6.084952607891254]}, {""species"": [{""element"": ""F"", ""occu"": 1}], ""abc"": [0.2528893, 0.89211313, 0.60324666], ""properties"": {""magmom"": 0.0}, ""label"": ""F"", ""xyz"": [2.6539456458663255, 3.78270857666352, 6.914018327159635]}]}",LiBiF6,148,2.5253,0.0,0.0052752639811657,0.0092784899478578,0.003437537445645
mp-973981,"{""@module"": ""pymatgen.core.structure"", ""@class"": ""Structure"", ""charge"": 0, ""lattice"": {""matrix"": [[3.72589343, 0.0, -0.0], [-0.0, 3.72589343, -0.0], [0.0, 0.0, 8.74631276]], ""pbc"": [true, true, true], ""a"": 3.72589343, ""b"": 3.72589343, ""c"": 8.74631276, ""alpha"": 90.0, ""beta"": 90.0, ""gamma"": 90.0, ""volume"": 121.41877889759029}, ""properties"": {}, ""sites"": [{""species"": [{""element"": ""Lu"", ""occu"": 1}], ""abc"": [0.75, 0.75, 0.37604287000000003], ""properties"": {""magmom"": -0.0}, ""label"": ""Lu"", ""xyz"": [2.7944200725000004, 2.7944200725000004, 3.2889885521880218]}, {""species"": [{""element"": ""Lu"", ""occu"": 1}], ""abc"": [0.250001, 0.250001, 0.62395613], ""properties"": {""magmom"": -0.0}, ""label"": ""Lu"", ""xyz"": [0.9314770833934299, 0.9314770833934299, 5.45731546149922]}, {""species"": [{""element"": ""Br"", ""occu"": 1}], ""abc"": [0.250001, 0.250001, 0.18643491], ""properties"": {""magmom"": 0.0}, ""label"": ""Br"", ""xyz"": [0.9314770833934299, 0.9314770833934299, 1.6306180322424517]}, {""species"": [{""element"": ""Br"", ""occu"": 1}], ""abc"": [0.75, 0.75, 0.81356509], ""properties"": {""magmom"": 0.0}, ""label"": ""Br"", ""xyz"": [2.7944200725000004, 2.7944200725000004, 7.115694727757549]}, {""species"": [{""element"": ""O"", ""occu"": 1}], ""abc"": [0.75, 0.250001, 0.5], ""properties"": {""magmom"": -0.0}, ""label"": ""O"", ""xyz"": [2.7944200725000004, 0.9314770833934299, 4.37315638]}, {""species"": [{""element"": ""O"", ""occu"": 1}], ""abc"": [0.250001, 0.75, 0.5], ""properties"": {""magmom"": -0.0}, ""label"": ""O"", ""xyz"": [0.9314770833934299, 2.7944200725000004, 4.37315638]}]}",LuBrO,129,4.409199999999999,0.0,0.0030176183458497,0.00450699850739,0.0021281819695126
mp-1029385,"{""@module"": ""pymatgen.core.structure"", ""@class"": ""Structure"", ""charge"": 0, ""lattice"": {""matrix"": [[3.25830097, -2e-06, -1e-06], [-1.6291524800000001, 2.82177481, 0.0], [-2.99e-06, -2e-06, 5.42909009]], ""pbc"": [true, true, true], ""a"": 3.2583009700007675, ""b"": 3.2583049092190075, ""c"": 5.429090090001192, ""alpha"": 90.00000250171001, ""beta"": 90.00004913944156, ""gamma"": 120.00003568466349, ""volume"": 49.916076814434874}, ""properties"": {}, ""sites"": [{""species"": [{""element"": ""Li"", ""occu"": 1}], ""abc"": [0.666667, 0.333333, 0.37935631000000003], ""properties"": {""magmom"": 0.0}, ""label"": ""Li"", ""xyz"": [1.6291503148757829, 0.94058857069511, 2.059558916532968]}, {""species"": [{""element"": ""Li"", ""occu"": 1}], ""abc"": [0.333333, 0.666667, 0.62064369], ""properties"": {""magmom"": 0.0}, ""label"": ""Li"", ""xyz"": [-4.814875783217023e-06, 1.88118223930489, 3.369530173467032]}, {""species"": [{""element"": ""Sn"", ""occu"": 1}], ""abc"": [0.0, -0.0, 0.0], ""properties"": {""magmom"": -0.0}, ""label"": ""Sn"", ""xyz"": [0.0, 0.0, 0.0]}, {""species"": [{""element"": ""N"", ""occu"": 1}], ""abc"": [0.666667999999999, 0.333333999999999, 0.77352792], ""properties"": {""magmom"": -0.0}, ""label"": ""N"", ""xyz"": [1.6291507654511577, 0.9405906041246972, 4.199552098142313]}, {""species"": [{""element"": ""N"", ""occu"": 1}], ""abc"": [0.333331999999999, 0.666666, 0.22647208], ""properties"": {""magmom"": -0.0}, ""label"": ""N"", ""xyz"": [-5.265451162537734e-06, 1.8811802058753, 1.229536991857687]}]}",Li2SnN2,164,1.8653999999999995,0.0,0.0111574564538094,0.0207195090402236,0.0073866622053381
mp-2530,"{""@module"": ""pymatgen.core.structure"", ""@class"": ""Structure"", ""charge"": 0, ""lattice"": {""matrix"": [[3.98884069, -0.0, 2.30295819], [1.32961289, 3.76071501, 2.30295819], [0.0, 0.0, 4.60591536]], ""pbc"": [true, true, true], ""a"": 4.6059164641890495, ""b"": 4.605916222488369, ""c"": 4.60591536, ""alpha"": 59.99999886874998, ""beta"": 60.00000060464651, ""gamma"": 60.000007043201784, ""volume"": 69.09284373750016}, ""properties"": {}, ""sites"": [{""species"": [{""element"": ""Li"", ""occu"": 1}], ""abc"": [0.25, 0.25, 0.25], ""properties"": {""magmom"": -0.0}, ""label"": ""Li"", ""xyz"": [1.329613395, 0.9401787525, 2.3029579350000002]}, {""species"": [{""element"": ""Li"", ""occu"": 1}], ""abc"": [0.75, 0.75, 0.75], ""properties"": {""magmom"": -0.0}, ""label"": ""Li"", ""xyz"": [3.988840185, 2.8205362575, 6.908873805]}, {""species"": [{""element"": ""Te"", ""occu"": 1}], ""abc"": [0.0, -0.0, 0.0], ""properties"": {""magmom"": 0.0}, ""label"": ""Te"", ""xyz"": [0.0, 0.0, 0.0]}]}",Li2Te,225,2.5378,0.0,0.0090624727764471,0.0136873225907976,0.0060596351592576
mp-1342,"{""@module"": ""pymatgen.core.structure"", ""@class"": ""Structure"", ""charge"": 0, ""lattice"": {""matrix"": [[3.41751801, 0.0, 1.97310523], [1.13917267, 3.2220662, 1.97310523], [0.0, -0.0, 3.94621046]], ""pbc"": [true, true, true], ""a"": 3.946210029550849, ""b"": 3.9462094746618206, ""c"": 3.94621046, ""alpha"": 59.99999174024437, ""beta"": 59.99999639169141, ""gamma"": 59.99999294301399, ""volume"": 43.453575205003915}, ""properties"": {}, ""sites"": [{""species"": [{""element"": ""Ba"", ""occu"": 1}], ""abc"": [-0.0, -0.0, -0.0], ""properties"": {""magmom"": 0.0}, ""label"": ""Ba"", ""xyz"": [0.0, 0.0, 0.0]}, {""species"": [{""element"": ""O"", ""occu"": 1}], ""abc"": [0.5, 0.5, 0.5], ""properties"": {""magmom"": -0.0}, ""label"": ""O"", ""xyz"": [2.27834534, 1.6110331, 3.94621046]}]}",BaO,225,2.1128,0.0,0.00687726235809,0.0126035042268754,0.0041888417564171
mp-8830,"{""@module"": ""pymatgen.core.structure"", ""@class"": ""Structure"", ""charge"": 0, ""lattice"": {""matrix"": [[2.95722249, -0.02007992, 4.51873802], [1.33222504, 2.64021705, 4.51873802], [-0.032872240000000004, -0.02007992, 5.40028462]], ""pbc"": [true, true, true], ""a"": 5.400422330886958, ""b"": 5.400422476224173, ""c"": 5.4004219987292075, ""alpha"": 33.55068951542158, ""beta"": 33.55068276769702, ""gamma"": 33.55069151130853, ""volume"": 42.850923866535034}, ""properties"": {}, ""sites"": [{""species"": [{""element"": ""Na"", ""occu"": 1}], ""abc"": [-0.0, -0.0, 0.0], ""properties"": {""magmom"": -0.0}, ""label"": ""Na"", ""xyz"": [0.0, 0.0, 0.0]}, {""species"": [{""element"": ""Rh"", ""occu"": 1}], ""abc"": [0.5, 0.5, 0.5], ""properties"": {""magmom"": -0.0}, ""label"": ""Rh"", ""xyz"": [2.1282876450000003, 1.3000286049999998, 7.218880329999999]}, {""species"": [{""element"": ""O"", ""occu"": 1}], ""abc"": [0.7659173300000001, 0.7659173300000001, 0.7659173300000001], ""properties"": {""magmom"": -0.0}, ""label"": ""O"", ""xyz"": [3.2601847810607762, 1.9914288761304497, 11.058131095886239]}, {""species"": [{""element"": ""O"", ""occu"": 1}], ""abc"": [0.23408267, 0.23408267, 0.23408267], ""properties"": {""magmom"": -0.0}, ""label"": ""O"", ""xyz"": [0.9963905089392242, 0.6086283338695507, 3.3796295641137615]}]}",NaRhO2,166,1.1898,0.0,0.0561513221041923,0.2966865770739267,0.0234194465252765
mp-557938,"{""@module"": ""pymatgen.core.structure"", ""@class"": ""Structure"", ""charge"": 0, ""lattice"": {""matrix"": [[4.961665, 1.626e-05, 2.86462525], [1.6538945200000001, 4.67790648, 2.86462525], [4.09e-06, 3.07e-06, 5.72924031]], ""pbc"": [true, true, true], ""a"": 5.729240560094064, ""b"": 5.7292454949888105, ""c"": 5.729240310002282, ""alpha"": 59.99992852177136, ""beta"": 59.99990170602396, ""gamma"": 59.99977505233054, ""volume"": 132.9766032890418}, ""properties"": {}, ""sites"": [{""species"": [{""element"": ""Hf"", ""occu"": 1}], ""abc"": [0.0, -0.0, 0.0], ""properties"": {""magmom"": 0.042}, ""label"": ""Hf"", ""xyz"": [0.0, 0.0, 0.0]}, {""species"": [{""element"": ""V"", ""occu"": 1}], ""abc"": [0.5, 0.5, 0.5], ""properties"": {""magmom"": 2.683}, ""label"": ""V"", ""xyz"": [3.307781805, 2.338962905, 5.729245405]}, {""species"": [{""element"": ""F"", ""occu"": 1}], ""abc"": [0.754511399999999, 0.7545124, 0.2454876], ""properties"": {""magmom"": 0.005}, ""label"": ""F"", ""xyz"": [4.991517733157327, 3.529551467202648, 5.729245133856103]}, {""species"": [{""element"": ""F"", ""occu"": 1}], ""abc"": [0.2454886, 0.754511399999999, 0.2454886], ""properties"": {""magmom"": 0.005}, ""label"": ""F"", ""xyz"": [2.4659154683049005, 3.5295385125885055, 4.271088432765463]}, {""species"": [{""element"": ""F"", ""occu"": 1}], ""abc"": [0.2454886, 0.2454876, 0.7545124], ""properties"": {""magmom"": 0.005}, ""label"": ""F"", ""xyz"": [1.6240458768426682, 1.1483743427973518, 5.7292456761438935]}, {""species"": [{""element"": ""F"", ""occu"": 1}], ""abc"": [0.754511399999999, 0.2454886, 0.2454886], ""properties"": {""magmom"": 0.005}, ""label"": ""F"", ""xyz"": [4.149646059791841, 1.148385734711494, 4.271088432765463]}, {""species"": [{""element"": ""F"", ""occu"": 1}], ""abc"": [0.2454886, 0.754511399999999, 0.754511399999999], ""properties"": {""magmom"": 0.005}, ""label"": ""F"", ""xyz"": [2.465917550208152, 3.5295400752885016, 7.187402377234525]}, {""species"": [{""element"": ""F"", ""occu"": 1}], ""abc"": [0.754511399999999, 0.2454886, 0.754511399999999], ""properties"": {""magmom"": 0.005}, ""label"": ""F"", ""xyz"": [4.149648141695093, 1.1483872974114901, 7.187402377234525]}]}",HfVF6,225,1.6855,0.0,0.0121492448365257,0.0340542141335436,0.0065327758408759
mp-9076,"{""@module"": ""pymatgen.core.structure"", ""@class"": ""Structure"", ""charge"": 0, ""lattice"": {""matrix"": [[6.6943094, -1.955491729999999, -0.0069456], [6.6943094, 1.955491729999999, -0.0069456], [6.12655095, 0.0, 3.33214036]], ""pbc"": [true, true, true], ""a"": 6.974078755677061, ""b"": 6.974078755677061, ""c"": 6.974079575233339, ""alpha"": 32.567474008751894, ""beta"": 32.567474008751894, ""gamma"": 32.56747489501761, ""volume"": 87.4062999055975}, ""properties"": {}, ""sites"": [{""species"": [{""element"": ""Na"", ""occu"": 1}], ""abc"": [0.5, 0.5, 0.5], ""properties"": {""magmom"": 0.0}, ""label"": ""Na"", ""xyz"": [9.757584875, 0.0, 1.6591245799999998]}, {""species"": [{""element"": ""Tm"", ""occu"": 1}], ""abc"": [0.0, 0.0, -0.0], ""properties"": {""magmom"": 0.0}, ""label"": ""Tm"", ""xyz"": [0.0, 0.0, 0.0]}, {""species"": [{""element"": ""S"", ""occu"": 1}], ""abc"": [0.25820272, 0.25820272, 0.25820272], ""properties"": {""magmom"": -0.0}, ""label"": ""S"", ""xyz"": [5.03886991071172, 0.0, 0.8567809587497152]}, {""species"": [{""element"": ""S"", ""occu"": 1}], ""abc"": [0.74179728, 0.74179728, 0.74179728], ""properties"": {""magmom"": -0.0}, ""label"": ""S"", ""xyz"": [14.47629983928828, 0.0, 2.461468201250285]}]}",NaTmS2,166,2.3630000000000004,0.0,0.0092979029917746,0.0151064815472708,0.0061061390237088
mp-9813,"{""@module"": ""pymatgen.core.structure"", ""@class"": ""Structure"", ""charge"": 0, ""lattice"": {""matrix"": [[3.15385894, 0.04009674, 5.96239874], [1.511080929999999, 2.7685865, 5.96239874], [0.06659692, 0.04009674, 6.74481998]], ""pbc"": [true, true, true], ""a"": 6.745267429593148, ""b"": 6.745267638852109, ""c"": 6.745267930995722, ""alpha"": 27.310767961141277, ""beta"": 27.310763390277906, ""gamma"": 27.31077247907446, ""volume"": 57.009125843015475}, ""properties"": {}, ""sites"": [{""species"": [{""element"": ""W"", ""occu"": 1}], ""abc"": [0.00066787, 0.00066787, 0.00066787], ""properties"": {""magmom"": 0.0}, ""label"": ""W"", ""xyz"": [0.003160051475937299, 0.0019026146852426002, 0.012468877413010199]}, {""species"": [{""element"": ""S"", ""occu"": 1}], ""abc"": [0.41411232000000003, 0.41411232000000003, 0.41411232000000003], ""properties"": {""magmom"": -0.0}, ""label"": ""S"", ""xyz"": [1.9593876772722527, 1.1797148866873537, 7.7313185998731075]}, {""species"": [{""element"": ""S"", ""occu"": 1}], ""abc"": [0.25391981, 0.25391981, 0.25391981], ""properties"": {""magmom"": 0.0}, ""label"": ""S"", ""xyz"": [1.20143092272481, 0.7233616712534038, 4.7405857182158835]}]}",WS2,160,1.6139,0.000883806666664,0.0345428345343532,0.0914138981637107,0.0207494372816687