id,structure_json,formula,spacegroup,bandgap,energy_above_hull,k_1064,k_755,k_1500
mp-1018031,"{""@module"": ""pymatgen.core.structure"", ""@class"": ""Structure"", ""charge"": 0, ""lattice"": {""matrix"": [[-1.65874102, -2.87231982, -0.00020214], [-3.31687212, -0.00035261, -0.00020214], [-1.65891054, -0.95777226, -6.11279058]], ""pbc"": [true, true, true], ""a"": 3.3168724667457523, ""b"": 3.316872144902135, ""c"": 6.405897326423937, ""alpha"": 74.98688179456269, ""beta"": 74.98688505320779, ""gamma"": 59.98782925267132, ""volume"": 58.232414910174086}, ""properties"": {}, ""sites"": [{""species"": [{""element"": ""K"", ""occu"": 1}], ""abc"": [0.49999285, 0.49999285, 0.49998963], ""properties"": {""magmom"": 0.0}, ""label"": ""K"", ""xyz"": [-3.3172090614637497, -1.9151918732937894, -3.0565340374710837]}, {""species"": [{""element"": ""In"", ""occu"": 1}], ""abc"": [5.599999999999997e-07, 5.599999999999997e-07, 0.99998829], ""properties"": {""magmom"": -0.0}, ""label"": ""In"", ""xyz"": [-1.658893900500935, -0.9577626531833963, -6.112718999448705]}, {""species"": [{""element"": ""O"", ""occu"": 1}], ""abc"": [0.27124746, 0.27124746, 0.18623822], ""properties"": {""magmom"": 0.0}, ""label"": ""O"", ""xyz"": [-1.658574972276463, -0.957578900917305, -1.1385448967750964]}, {""species"": [{""element"": ""O"", ""occu"": 1}], ""abc"": [0.72875813, 0.72875813, 0.81375186], ""properties"": {""magmom"": -0.0}, ""label"": ""O"", ""xyz"": [-4.975960065008432, -2.8728723462207593, -4.974589326602276]}]}",KInO2,166,2.0921,0.0,0.0057838236366675,0.0106016979538169,0.0037285576347078
mp-1209302,"{""@module"": ""pymatgen.core.structure"", ""@class"": ""Structure"", ""charge"": 0, ""lattice"": {""matrix"": [[-0.0, 5.00682557, 5.00681221], [5.00682763, -0.0, 5.00681221], [5.00682763, 5.00682557, 0.0]], ""pbc"": [true, true, true], ""a"": 7.080711178590107, ""b"": 7.08071263523217, ""c"": 7.080722082170522, ""alpha"": 59.9999422554099, ""beta"": 59.99996267083133, ""gamma"": 60.00009507375877, ""volume"": 251.02466724425227}, ""properties"": {}, ""sites"": [{""species"": [{""element"": ""Rb"", ""occu"": 1}], ""abc"": [0.25, 0.25, 0.25], ""properties"": {""magmom"": 0.003}, ""label"": ""Rb"", ""xyz"": [2.503413815, 2.503412785, 2.503406105]}, {""species"": [{""element"": ""Rb"", ""occu"": 1}], ""abc"": [0.75, 0.75, 0.75], ""properties"": {""magmom"": 0.003}, ""label"": ""Rb"", ""xyz"": [7.510241445, 7.510238355, 7.5102183149999995]}, {""species"": [{""element"": ""Tc"", ""occu"": 1}], ""abc"": [0.0, -0.0, -0.0], ""properties"": {""magmom"": 2.476}, ""label"": ""Tc"", ""xyz"": [0.0, 0.0, 0.0]}, {""species"": [{""element"": ""Cl"", ""occu"": 1}], ""abc"": [0.76385778, 0.23614222, 0.23614222], ""properties"": {""magmom"": 0.041}, ""label"": ""Cl"", ""xyz"": [2.3646467834110774, 5.00682557, 5.00681221]}, {""species"": [{""element"": ""Cl"", ""occu"": 1}], ""abc"": [0.23614222, 0.76385778, 0.76385778], ""properties"": {""magmom"": 0.041}, ""label"": ""Cl"", ""xyz"": [7.649008476588923, 5.00682557, 5.00681221]}, {""species"": [{""element"": ""Cl"", ""occu"": 1}], ""abc"": [0.23614222, 0.76385778, 0.23614222], ""properties"": {""magmom"": 0.041}, ""label"": ""Cl"", ""xyz"": [5.00682763, 2.364645810505131, 5.00681221]}, {""species"": [{""element"": ""Cl"", ""occu"": 1}], ""abc"": [0.76385778, 0.23614222, 0.76385778], ""properties"": {""magmom"": 0.041}, ""label"": ""Cl"", ""xyz"": [5.00682763, 7.649005329494869, 5.00681221]}, {""species"": [{""element"": ""Cl"", ""occu"": 1}], ""abc"": [0.23614222, 0.23614222, 0.76385778], ""properties"": {""magmom"": 0.041}, ""label"": ""Cl"", ""xyz"": [5.00682763, 5.00682557, 2.3646395007850125]}, {""species"": [{""element"": ""Cl"", ""occu"": 1}], ""abc"": [0.76385778, 0.76385778, 0.23614222], ""properties"": {""magmom"": 0.041}, ""label"": ""Cl"", ""xyz"": [5.00682763, 5.00682557, 7.648984919214987]}]}",Rb2TcCl6,225,1.2521000000000002,0.0,0.0100236315711281,0.0208950418448213,0.0061489697755635
mp-625359,"{""@module"": ""pymatgen.core.structure"", ""@class"": ""Structure"", ""charge"": 0, ""lattice"": {""matrix"": [[4.09250331, 0.0, -1.54428382], [0.0, 3.83274926, 0.0], [-0.2196535, 0.0, 6.45128317]], ""pbc"": [true, true, true], ""a"": 4.37417373444114, ""b"": 3.83274926, ""c"": 6.4550214716596805, ""alpha"": 90.0, ""beta"": 112.62378084381494, ""gamma"": 90.0, ""volume"": 99.8917572710646}, ""properties"": {}, ""sites"": [{""species"": [{""element"": ""Nd"", ""occu"": 1}], ""abc"": [0.63888994, 0.22253031, 0.30788732], ""properties"": {""magmom"": 0.0}, ""label"": ""Nd"", ""xyz"": [2.5470306667320814, 0.8529028809800706, 0.9996408886696337]}, {""species"": [{""element"": ""Nd"", ""occu"": 1}], ""abc"": [0.36111006, 0.72253031, 0.69211268], ""properties"": {""magmom"": 0.0}, ""label"": ""Nd"", ""xyz"": [1.3258191432679185, 2.7692775109800705, 3.907358461330367]}, {""species"": [{""element"": ""H"", ""occu"": 1}], ""abc"": [0.08422583, 0.63824702, 0.05045814], ""properties"": {""magmom"": 0.0}, ""label"": ""H"", ""xyz"": [0.3336111810080073, 2.4462407936022053, 0.1954511628764332]}, {""species"": [{""element"": ""H"", ""occu"": 1}], ""abc"": [0.91577417, 0.13824702, 0.9495418600000001], ""properties"": {""magmom"": 0.0}, ""label"": ""H"", ""xyz"": [3.5392386289919924, 0.5298661636022052, 4.711548187123567]}, {""species"": [{""element"": ""O"", ""occu"": 1}], ""abc"": [0.77843352, 0.72439319, 0.53840358], ""properties"": {""magmom"": -0.0}, ""label"": ""O"", ""xyz"": [3.067479526455421, 2.7764174629215392, 2.271271664440102]}, {""species"": [{""element"": ""O"", ""occu"": 1}], ""abc"": [0.22156648, 0.22439319, 0.46159642], ""properties"": {""magmom"": -0.0}, ""label"": ""O"", ""xyz"": [0.8053702835445787, 0.8600428329215394, 2.635727685559898]}, {""species"": [{""element"": ""O"", ""occu"": 1}], ""abc"": [0.29165138, 0.7354424900000001, 0.05526132], ""properties"": {""magmom"": -0.0}, ""label"": ""O"", ""xyz"": [1.1814458956634477, 2.8187666593200578, -0.0938860835466872]}, {""species"": [{""element"": ""O"", ""occu"": 1}], ""abc"": [0.70834862, 0.23544249, 0.94473868], ""properties"": {""magmom"": -0.0}, ""label"": ""O"", ""xyz"": [2.691403914336552, 0.9023920293200574, 5.000885433546688]}]}",NdHO2,4,4.0304,0.0,0.0026033348125354,0.0038105805570432,0.0018057912305822
mp-569393,"{""@module"": ""pymatgen.core.structure"", ""@class"": ""Structure"", ""charge"": 0, ""lattice"": {""matrix"": [[7.82054769, -2.10777968, -0.00051627], [7.82054769, 2.10777968, -0.00051627], [7.2527011, 0.0, 3.6058324600000002]], ""pbc"": [true, true, true], ""a"": 8.0996112016269, ""b"": 8.0996112016269, ""c"": 8.099611161996041, ""alpha"": 30.167677636136094, ""beta"": 30.167677636136094, ""gamma"": 30.167681580492104, ""volume"": 118.89280783398395}, ""properties"": {}, ""sites"": [{""species"": [{""element"": ""Gd"", ""occu"": 1}], ""abc"": [0.5, 0.5, 0.5], ""properties"": {""magmom"": -6.901}, ""label"": ""Gd"", ""xyz"": [11.44689824, 0.0, 1.80239996]}, {""species"": [{""element"": ""Tl"", ""occu"": 1}], ""abc"": [-0.0, -0.0, -0.0], ""properties"": {""magmom"": 0.005}, ""label"": ""Tl"", ""xyz"": [0.0, 0.0, 0.0]}, {""species"": [{""element"": ""Se"", ""occu"": 1}], ""abc"": [0.7646757200000001, 0.7646757200000001, 0.7646757200000001], ""properties"": {""magmom"": 0.03}, ""label"": ""Se"", ""xyz"": [17.506330306877466, 0.0, 2.7565029742819425]}, {""species"": [{""element"": ""Se"", ""occu"": 1}], ""abc"": [0.23532428, 0.23532428, 0.23532428], ""properties"": {""magmom"": 0.03}, ""label"": ""Se"", ""xyz"": [5.387466173122534, 0.0, 0.8482969457180577]}]}",GdTlSe2,166,0.4856000000000002,0.0,0.0371255457092593,0.1392418393928187,0.0181437048485151
mp-1225447,"{""@module"": ""pymatgen.core.structure"", ""@class"": ""Structure"", ""charge"": 0, ""lattice"": {""matrix"": [[3.7725675, 0.0, 0.0], [0.0, 3.7725675, 0.0], [0.0, 0.0, 5.31917218]], ""pbc"": [true, true, true], ""a"": 3.7725675, ""b"": 3.7725675, ""c"": 5.31917218, ""alpha"": 90.0, ""beta"": 90.0, ""gamma"": 90.0, ""volume"": 75.70387092967823}, ""properties"": {}, ""sites"": [{""species"": [{""element"": ""Er"", ""occu"": 1}], ""abc"": [-0.0, 0.0, -0.0], ""properties"": {""magmom"": 0.0}, ""label"": ""Er"", ""xyz"": [0.0, 0.0, 0.0]}, {""species"": [{""element"": ""Pa"", ""occu"": 1}], ""abc"": [0.5, 0.5, 0.5], ""properties"": {""magmom"": -0.0}, ""label"": ""Pa"", ""xyz"": [1.88628375, 1.88628375, 2.65958609]}, {""species"": [{""element"": ""O"", ""occu"": 1}], ""abc"": [0.5, 0.0, 0.74340099], ""properties"": {""magmom"": 0.0}, ""label"": ""O"", ""xyz"": [1.88628375, 0.0, 3.9542778645924583]}, {""species"": [{""element"": ""O"", ""occu"": 1}], ""abc"": [-0.0, 0.5, 0.25659901], ""properties"": {""magmom"": 0.0}, ""label"": ""O"", ""xyz"": [0.0, 1.88628375, 1.364894315407542]}, {""species"": [{""element"": ""O"", ""occu"": 1}], ""abc"": [0.5, 0.0, 0.25659901], ""properties"": {""magmom"": 0.0}, ""label"": ""O"", ""xyz"": [1.88628375, 0.0, 1.364894315407542]}, {""species"": [{""element"": ""O"", ""occu"": 1}], ""abc"": [0.0, 0.5, 0.74340099], ""properties"": {""magmom"": 0.0}, ""label"": ""O"", ""xyz"": [0.0, 1.88628375, 3.9542778645924583]}]}",ErPaO4,123,2.458,0.0,0.006623247580717,0.0104060930163281,0.0042939408776341
mp-769284,"{""@module"": ""pymatgen.core.structure"", ""@class"": ""Structure"", ""charge"": 0, ""lattice"": {""matrix"": [[3.82356489, -0.0006137, 1.565e-05], [-1.91229073, 3.31141561, -0.00017421], [4.2960000000000016e-05, -0.00030945, 6.78882493]], ""pbc"": [true, true, true], ""a"": 3.823564939282884, ""b"": 3.8239154290523647, ""c"": 6.788824937188641, ""alpha"": 90.00505324111674, ""beta"": 89.99940249660766, ""gamma"": 120.01495808587048, ""volume"": 85.94814519555962}, ""properties"": {}, ""sites"": [{""species"": [{""element"": ""Dy"", ""occu"": 1}], ""abc"": [0.33190673, 0.66951908, 0.290261999999999], ""properties"": {""magmom"": 0.0}, ""label"": ""Dy"", ""xyz"": [-0.011235741003898944, 2.2167624199687377, 1.970426459253051]}, {""species"": [{""element"": ""Dy"", ""occu"": 1}], ""abc"": [0.66572265, 0.33599444, 0.70768862], ""properties"": {""magmom"": 0.0}, ""label"": ""Dy"", ""xyz"": [1.9029451003773323, 1.1119896852554445, 4.804326031101377]}, {""species"": [{""element"": ""Se"", ""occu"": 1}], ""abc"": [0.99850108, 0.00251434, 0.99905794], ""properties"": {""magmom"": -0.0}, ""label"": ""Se"", ""xyz"": [3.8130684425701156, 0.0074040861325184, 6.782444638105175]}, {""species"": [{""element"": ""O"", ""occu"": 1}], ""abc"": [0.332426499999999, 0.66935592, 0.62429991], ""properties"": {""magmom"": -0.0}, ""label"": ""O"", ""xyz"": [-0.00892200705690667, 2.2161184423837117, 4.238151386784658]}, {""species"": [{""element"": ""O"", ""occu"": 1}], ""abc"": [0.66527804, 0.33618421, 0.37366553], ""properties"": {""magmom"": 0.0}, ""label"": ""O"", ""xyz"": [1.900867860147811, 1.1127217288981115, 2.5367017104957648]}]}",Dy2SeO2,164,2.1467,0.0,0.0063265799147269,0.0097803830384391,0.0042490583081748
mp-1206843,"{""@module"": ""pymatgen.core.structure"", ""@class"": ""Structure"", ""charge"": 0, ""lattice"": {""matrix"": [[1.86667091, -3.23316955, 0.0], [1.86667091, 3.23316955, -0.0], [0.0, 0.0, 3.82337706]], ""pbc"": [true, true, true], ""a"": 3.7333424200423178, ""b"": 3.7333424200423178, ""c"": 3.82337706, ""alpha"": 90.0, ""beta"": 90.0, ""gamma"": 120.00001063349531, ""volume"": 46.15017638629439}, ""properties"": {}, ""sites"": [{""species"": [{""element"": ""Lu"", ""occu"": 1}], ""abc"": [0.0, 0.0, 0.0], ""properties"": {""magmom"": -0.0}, ""label"": ""Lu"", ""xyz"": [0.0, 0.0, 0.0]}, {""species"": [{""element"": ""H"", ""occu"": 1}], ""abc"": [0.333333, 0.666667, -0.0], ""properties"": {""magmom"": 0.0}, ""label"": ""H"", ""xyz"": [1.8666709099999999, 1.0777253387797, 0.0]}, {""species"": [{""element"": ""Se"", ""occu"": 1}], ""abc"": [0.666667, 0.333333, 0.5], ""properties"": {""magmom"": 0.0}, ""label"": ""Se"", ""xyz"": [1.8666709099999999, -1.0777253387797, 1.91168853]}]}",LuHSe,187,1.4634999999999998,0.0,0.0173559699308016,0.0354956982980846,0.011387192117878
mp-28066,"{""@module"": ""pymatgen.core.structure"", ""@class"": ""Structure"", ""charge"": 0, ""lattice"": {""matrix"": [[4.07401477, 0.0, 0.0], [0.0, 4.07401477, -0.0], [-0.0, -0.0, 8.12696051]], ""pbc"": [true, true, true], ""a"": 4.07401477, ""b"": 4.07401477, ""c"": 8.12696051, ""alpha"": 90.0, ""beta"": 90.0, ""gamma"": 90.0, ""volume"": 134.88801006631013}, ""properties"": {}, ""sites"": [{""species"": [{""element"": ""Th"", ""occu"": 1}], ""abc"": [0.75, 0.75, 0.8573400800000001], ""properties"": {""magmom"": -0.0}, ""label"": ""Th"", ""xyz"": [3.0555110775, 3.0555110775, 6.967568973800241]}, {""species"": [{""element"": ""Th"", ""occu"": 1}], ""abc"": [0.25, 0.25, 0.14265992], ""properties"": {""magmom"": -0.0}, ""label"": ""Th"", ""xyz"": [1.0185036925, 1.0185036925, 1.159391536199759]}, {""species"": [{""element"": ""Br"", ""occu"": 1}], ""abc"": [0.25, 0.25, 0.64794248], ""properties"": {""magmom"": -0.0}, ""label"": ""Br"", ""xyz"": [1.0185036925, 1.0185036925, 5.265802947711465]}, {""species"": [{""element"": ""Br"", ""occu"": 1}], ""abc"": [0.75, 0.75, 0.35205752], ""properties"": {""magmom"": -0.0}, ""label"": ""Br"", ""xyz"": [3.0555110775, 3.0555110775, 2.8611575622885352]}, {""species"": [{""element"": ""N"", ""occu"": 1}], ""abc"": [0.75, 0.25, -0.0], ""properties"": {""magmom"": 0.0}, ""label"": ""N"", ""xyz"": [3.0555110775, 1.0185036925, 0.0]}, {""species"": [{""element"": ""N"", ""occu"": 1}], ""abc"": [0.25, 0.75, -0.0], ""properties"": {""magmom"": 0.0}, ""label"": ""N"", ""xyz"": [1.0185036925, 3.0555110775, 0.0]}]}",ThBrN,129,2.6682,0.0,0.0070598427415605,0.0107687765476611,0.0047391058456621
mp-2605,"{""@module"": ""pymatgen.core.structure"", ""@class"": ""Structure"", ""charge"": 0, ""lattice"": {""matrix"": [[2.94374275, 0.0, 1.69957006], [0.98124758, 2.77538761, 1.69957006], [0.0, -0.0, 3.39914011]], ""pbc"": [true, true, true], ""a"": 3.399141033706305, ""b"": 3.399141301541578, ""c"": 3.39914011, ""alpha"": 60.00001149851537, ""beta"": 60.00000889199937, ""gamma"": 60.000008590701725, ""volume"": 27.771067003632275}, ""properties"": {}, ""sites"": [{""species"": [{""element"": ""Ca"", ""occu"": 1}], ""abc"": [-0.0, -0.0, 0.0], ""properties"": {""magmom"": 0.0}, ""label"": ""Ca"", ""xyz"": [0.0, 0.0, 0.0]}, {""species"": [{""element"": ""O"", ""occu"": 1}], ""abc"": [0.5, 0.5, 0.5], ""properties"": {""magmom"": -0.0}, ""label"": ""O"", ""xyz"": [1.962495165, 1.387693805, 3.399140115]}]}",CaO,225,3.652600000000001,0.0,0.0030899804052884,0.0045823228471721,0.0020694658155247
mp-697096,"{""@module"": ""pymatgen.core.structure"", ""@class"": ""Structure"", ""charge"": 0, ""lattice"": {""matrix"": [[-2.59727502, 2.59727502, 3.30874887], [2.59727502, -2.59727502, 3.30874887], [2.59727502, 2.59727502, -3.30874887]], ""pbc"": [true, true, true], ""a"": 4.943631675575991, ""b"": 4.943631675575991, ""c"": 4.943631675575991, ""alpha"": 116.61262121256237, ""beta"": 116.61262121256237, ""gamma"": 95.97461996120421, ""volume"": 89.28112921195864}, ""properties"": {}, ""sites"": [{""species"": [{""element"": ""Na"", ""occu"": 1}], ""abc"": [0.75, 0.25, 0.5], ""properties"": {""magmom"": -0.0}, ""label"": ""Na"", ""xyz"": [-2.220446049250313e-16, 2.5972750200000005, 1.654374435]}, {""species"": [{""element"": ""Na"", ""occu"": 1}], ""abc"": [0.25, 0.75, 0.5], ""properties"": {""magmom"": -0.0}, ""label"": ""Na"", ""xyz"": [2.5972750200000005, -2.220446049250313e-16, 1.654374435]}, {""species"": [{""element"": ""H"", ""occu"": 1}], ""abc"": [0.22394734, 0.22394734, 0.44789368], ""properties"": {""magmom"": -0.0}, ""label"": ""H"", ""xyz"": [1.1633030666798736, 1.1633030666798736, 3.30874887000121e-06]}, {""species"": [{""element"": ""H"", ""occu"": 1}], ""abc"": [0.7760526600000001, 0.7760526600000001, 0.55210632], ""properties"": {""magmom"": -0.0}, ""label"": ""H"", ""xyz"": [1.4339719533201265, 1.4339719533201265, 3.30874556125113]}, {""species"": [{""element"": ""H"", ""occu"": 1}], ""abc"": [0.22394734, 0.7760526600000001, -0.0], ""properties"": {""magmom"": -0.0}, ""label"": ""H"", ""xyz"": [1.4339693560451068, -1.4339693560451068, 3.30874887]}, {""species"": [{""element"": ""H"", ""occu"": 1}], ""abc"": [0.7760526600000001, 0.22394734, 0.0], ""properties"": {""magmom"": -0.0}, ""label"": ""H"", ""xyz"": [-1.4339693560451068, 1.4339693560451068, 3.30874887]}, {""species"": [{""element"": ""Pt"", ""occu"": 1}], ""abc"": [0.0, -0.0, 0.0], ""properties"": {""magmom"": -0.0}, ""label"": ""Pt"", ""xyz"": [0.0, 0.0, 0.0]}]}",Na2H4Pt,139,2.1186,0.0,0.0086873696323446,0.0164083942322515,0.0054526980635027
mp-1219240,"{""@module"": ""pymatgen.core.structure"", ""@class"": ""Structure"", ""charge"": 0, ""lattice"": {""matrix"": [[3.71462038, 0.0, -0.0], [0.0, 3.71462038, -0.0], [-0.0, -0.0, 5.17931872]], ""pbc"": [true, true, true], ""a"": 3.71462038, ""b"": 3.71462038, ""c"": 5.17931872, ""alpha"": 90.0, ""beta"": 90.0, ""gamma"": 90.0, ""volume"": 71.46633508264502}, ""properties"": {}, ""sites"": [{""species"": [{""element"": ""Sc"", ""occu"": 1}], ""abc"": [0.0, -0.0, 0.0], ""properties"": {""magmom"": 0.0}, ""label"": ""Sc"", ""xyz"": [0.0, 0.0, 0.0]}, {""species"": [{""element"": ""Pa"", ""occu"": 1}], ""abc"": [0.5, 0.5, 0.5], ""properties"": {""magmom"": -0.0}, ""label"": ""Pa"", ""xyz"": [1.85731019, 1.85731019, 2.58965936]}, {""species"": [{""element"": ""O"", ""occu"": 1}], ""abc"": [0.5, -0.0, 0.75175008], ""properties"": {""magmom"": 0.0}, ""label"": ""O"", ""xyz"": [1.85731019, 0.0, 3.893553262105498]}, {""species"": [{""element"": ""O"", ""occu"": 1}], ""abc"": [0.0, 0.5, 0.24824992], ""properties"": {""magmom"": 0.0}, ""label"": ""O"", ""xyz"": [0.0, 1.85731019, 1.2857654578945026]}, {""species"": [{""element"": ""O"", ""occu"": 1}], ""abc"": [0.5, -0.0, 0.24824992], ""properties"": {""magmom"": 0.0}, ""label"": ""O"", ""xyz"": [1.85731019, 0.0, 1.2857654578945026]}, {""species"": [{""element"": ""O"", ""occu"": 1}], ""abc"": [-0.0, 0.5, 0.75175008], ""properties"": {""magmom"": 0.0}, ""label"": ""O"", ""xyz"": [0.0, 1.85731019, 3.893553262105498]}]}",ScPaO4,123,2.5013999999999994,0.0,0.0072188924523389,0.0112559345960314,0.0047350549009825