id,structure_json,formula,spacegroup,bandgap,energy_above_hull,k_1064,k_755,k_1500
mp-20098,"{""@module"": ""pymatgen.core.structure"", ""@class"": ""Structure"", ""charge"": 0, ""lattice"": {""matrix"": [[4.14658282, 0.0, -1.27968226], [-0.39492428, 4.12773363, -1.27968226], [-0.00152658, -0.00167974, 7.35302727]], ""pbc"": [true, true, true], ""a"": 4.339554789339323, ""b"": 4.339554907329229, ""c"": 7.353027620330051, ""alpha"": 107.16271173403709, ""beta"": 107.16271119023227, ""gamma"": 89.99999862505899, ""volume"": 125.83651068209677}, ""properties"": {}, ""sites"": [{""species"": [{""element"": ""Ba"", ""occu"": 1}], ""abc"": [0.35581795, 0.35581795, 0.7116369], ""properties"": {""magmom"": 0.0}, ""label"": ""Ba"", ""xyz"": [1.333821080143991, 1.4675263534062524, 4.322017695229129]}, {""species"": [{""element"": ""Ba"", ""occu"": 1}], ""abc"": [0.6441820500000001, 0.6441820500000001, 0.2883631], ""properties"": {""magmom"": 0.0}, ""label"": ""Ba"", ""xyz"": [2.4163108798560096, 2.6585275365937475, 0.4716450547708708]}, {""species"": [{""element"": ""Pb"", ""occu"": 1}], ""abc"": [-0.0, -0.0, -0.0], ""properties"": {""magmom"": 0.0}, ""label"": ""Pb"", ""xyz"": [0.0, 0.0, 0.0]}, {""species"": [{""element"": ""O"", ""occu"": 1}], ""abc"": [-0.0, 0.5, -0.0], ""properties"": {""magmom"": 0.0}, ""label"": ""O"", ""xyz"": [-0.19746214, 2.063866815, -0.63984113]}, {""species"": [{""element"": ""O"", ""occu"": 1}], ""abc"": [0.5, -0.0, -0.0], ""properties"": {""magmom"": 0.0}, ""label"": ""O"", ""xyz"": [2.07329141, 0.0, -0.63984113]}, {""species"": [{""element"": ""O"", ""occu"": 1}], ""abc"": [0.83831128, 0.83831128, 0.67662055], ""properties"": {""magmom"": -0.0}, ""label"": ""O"", ""xyz"": [3.1440247573911124, 3.459189116261689, 2.829665208844613]}, {""species"": [{""element"": ""O"", ""occu"": 1}], ""abc"": [0.16168872, 0.16168872, 0.32337945], ""properties"": {""magmom"": -0.0}, ""label"": ""O"", ""xyz"": [0.6061072026088878, 0.6668647737383107, 1.9639975411553872]}]}",Ba2PbO4,139,1.2533,0.0,0.0202255070125482,0.0923876193396672,0.0107035647374514
mp-4555,"{""@module"": ""pymatgen.core.structure"", ""@class"": ""Structure"", ""charge"": 0, ""lattice"": {""matrix"": [[4.84855585, -0.0, 0.0], [-2.42427743, 4.19897234, 0.0], [0.0, 0.0, 5.10058609]], ""pbc"": [true, true, true], ""a"": 4.84855585, ""b"": 4.848555431228201, ""c"": 5.10058609, ""alpha"": 90.0, ""beta"": 90.0, ""gamma"": 119.99999610274098, ""volume"": 103.84258688390635}, ""properties"": {}, ""sites"": [{""species"": [{""element"": ""Ca"", ""occu"": 1}], ""abc"": [0.0, 0.0, -0.0], ""properties"": {""magmom"": -0.0}, ""label"": ""Ca"", ""xyz"": [0.0, 0.0, 0.0]}, {""species"": [{""element"": ""As"", ""occu"": 1}], ""abc"": [0.333333, 0.666667, 0.5], ""properties"": {""magmom"": -0.0}, ""label"": ""As"", ""xyz"": [-2.094277760100738e-06, 2.79931629299078, 2.550293045]}, {""species"": [{""element"": ""As"", ""occu"": 1}], ""abc"": [0.666667, 0.333333, 0.5], ""properties"": {""magmom"": -0.0}, ""label"": ""As"", ""xyz"": [2.4242805142777604, 1.39965604700922, 2.550293045]}, {""species"": [{""element"": ""O"", ""occu"": 1}], ""abc"": [0.37747983, 0.37747983, 0.70207237], ""properties"": {""magmom"": 0.0}, ""label"": ""O"", ""xyz"": [0.9151162058542688, 1.5850273650779023, 3.5809805645953334]}, {""species"": [{""element"": ""O"", ""occu"": 1}], ""abc"": [0.62252017, 0.0, 0.70207237], ""properties"": {""magmom"": 0.0}, ""label"": ""O"", ""xyz"": [3.018323811996495, 0.0, 3.5809805645953334]}, {""species"": [{""element"": ""O"", ""occu"": 1}], ""abc"": [0.0, 0.62252017, 0.70207237], ""properties"": {""magmom"": 0.0}, ""label"": ""O"", ""xyz"": [-1.5091615978507633, 2.613944974922098, 3.5809805645953334]}, {""species"": [{""element"": ""O"", ""occu"": 1}], ""abc"": [0.37747983, -0.0, 0.29792763], ""properties"": {""magmom"": 0.0}, ""label"": ""O"", ""xyz"": [1.8302320380035058, 0.0, 1.5196055254046668]}, {""species"": [{""element"": ""O"", ""occu"": 1}], ""abc"": [-0.0, 0.37747983, 0.29792763], ""properties"": {""magmom"": 0.0}, ""label"": ""O"", ""xyz"": [-0.915115832149237, 1.5850273650779023, 1.5196055254046668]}, {""species"": [{""element"": ""O"", ""occu"": 1}], ""abc"": [0.62252017, 0.62252017, 0.29792763], ""properties"": {""magmom"": 0.0}, ""label"": ""O"", ""xyz"": [1.5091622141457317, 2.613944974922098, 1.5196055254046668]}]}",Ca(AsO3)2,162,3.3128,0.0,0.0027986928005242,0.0043153947040313,0.0019789402055802
mp-30847,"{""@module"": ""pymatgen.core.structure"", ""@class"": ""Structure"", ""charge"": 0, ""lattice"": {""matrix"": [[3.79221395, 0.0, 2.18943605], [1.26407199, 3.57533438, 2.18943605], [-0.0, -0.0, 4.37887311]], ""pbc"": [true, true, true], ""a"": 4.3788716422857386, ""b"": 4.378872473794155, ""c"": 4.37887311, ""alpha"": 60.000002823788776, ""beta"": 59.999996542244816, ""gamma"": 59.999995166078726, ""volume"": 59.3706572910037}, ""properties"": {}, ""sites"": [{""species"": [{""element"": ""Ti"", ""occu"": 1}], ""abc"": [0.0, 0.0, 0.0], ""properties"": {""magmom"": -0.0}, ""label"": ""Ti"", ""xyz"": [0.0, 0.0, 0.0]}, {""species"": [{""element"": ""Sn"", ""occu"": 1}], ""abc"": [0.5, 0.5, 0.5], ""properties"": {""magmom"": -0.0}, ""label"": ""Sn"", ""xyz"": [2.5281429699999998, 1.78766719, 4.378872605]}, {""species"": [{""element"": ""Pt"", ""occu"": 1}], ""abc"": [0.25, 0.25, 0.25], ""properties"": {""magmom"": 0.0}, ""label"": ""Pt"", ""xyz"": [1.2640714849999999, 0.893833595, 2.1894363025]}]}",TiSnPt,216,0.7973999999999997,0.0,0.234862418009474,2.190687620437147,0.1010234863369895
mp-754237,"{""@module"": ""pymatgen.core.structure"", ""@class"": ""Structure"", ""charge"": 0, ""lattice"": {""matrix"": [[0.0, 4.36002379, 1e-08], [2.18001339, -2.18001339, 5.03091232], [4.36002379, 0.0, -1e-08]], ""pbc"": [true, true, true], ""a"": 4.36002379, ""b"": 5.900423335040153, ""c"": 4.36002379, ""alpha"": 68.31723299324167, ""beta"": 90.0, ""gamma"": 111.68276700675833, ""volume"": 95.63667468794118}, ""properties"": {}, ""sites"": [{""species"": [{""element"": ""Li"", ""occu"": 1}], ""abc"": [0.25, 0.5, 0.25], ""properties"": {""magmom"": 0.0}, ""label"": ""Li"", ""xyz"": [2.1800126425, -7.475000001200272e-07, 2.51545616]}, {""species"": [{""element"": ""Li"", ""occu"": 1}], ""abc"": [0.5, 0.0, 0.5], ""properties"": {""magmom"": 0.0}, ""label"": ""Li"", ""xyz"": [2.180011895, 2.180011895, 0.0]}, {""species"": [{""element"": ""Tm"", ""occu"": 1}], ""abc"": [0.0, 0.0, -0.0], ""properties"": {""magmom"": 0.0}, ""label"": ""Tm"", ""xyz"": [0.0, 0.0, 0.0]}, {""species"": [{""element"": ""Tm"", ""occu"": 1}], ""abc"": [0.75, 0.5, 0.75], ""properties"": {""magmom"": 0.0}, ""label"": ""Tm"", ""xyz"": [4.360024537499999, 2.1800111474999997, 2.51545616]}, {""species"": [{""element"": ""O"", ""occu"": 1}], ""abc"": [0.77615947, 0.55231793, 0.22384053], ""properties"": {""magmom"": -0.0}, ""label"": ""O"", ""xyz"": [2.1800105189032912, 2.1800132710967084, 2.778663084117086]}, {""species"": [{""element"": ""O"", ""occu"": 1}], ""abc"": [0.22384053, 0.44768207, 0.77615947], ""properties"": {""magmom"": -0.0}, ""label"": ""O"", ""xyz"": [4.3600266610967084, -2.871096708600973e-06, 2.252249235882913]}, {""species"": [{""element"": ""O"", ""occu"": 1}], ""abc"": [0.52615947, 0.05231793, 0.97384053], ""properties"": {""magmom"": -0.0}, ""label"": ""O"", ""xyz"": [4.360021666403291, 2.180014018596708, 0.26320691411708697]}, {""species"": [{""element"": ""O"", ""occu"": 1}], ""abc"": [0.97384053, 0.94768207, 0.52615947], ""properties"": {""magmom"": -0.0}, ""label"": ""O"", ""xyz"": [4.360027408596709, 2.180008276403291, 4.767705405882913]}]}",LiTmO2,141,4.336600000000001,0.000193475625,0.0023681629803867,0.0035437112735071,0.0016464338059174
mp-754055,"{""@module"": ""pymatgen.core.structure"", ""@class"": ""Structure"", ""charge"": 0, ""lattice"": {""matrix"": [[3.49430477, -1.209999999999999e-06, 2.339999999999998e-06], [-1.7471532, 3.02615851, 2.2480000000000005e-05], [8.769999999999999e-06, 9.255000000000001e-05, 13.62849359]], ""pbc"": [true, true, true], ""a"": 3.494304770000993, ""b"": 3.4943067456107815, ""c"": 13.62849359031707, ""alpha"": 89.99931287014543, ""beta"": 89.99992476127485, ""gamma"": 120.00001656814993, ""volume"": 144.11202510408083}, ""properties"": {}, ""sites"": [{""species"": [{""element"": ""Cs"", ""occu"": 1}], ""abc"": [0.33332958, 0.66667294, 0.75000016], ""properties"": {""magmom"": 0.0}, ""label"": ""Cs"", ""xyz"": [-1.8041596908329085e-05, 2.0175269999537355, 10.221388139857883]}, {""species"": [{""element"": ""Cs"", ""occu"": 1}], ""abc"": [0.66668377, 0.3333345, 0.25000033], ""properties"": {""magmom"": 0.0}, ""label"": ""Cs"", ""xyz"": [1.7472120317500768, 1.0087453646947746, 3.4071369483024667]}, {""species"": [{""element"": ""Er"", ""occu"": 1}], ""abc"": [0.99994626, 0.99996129, 0.99999985], ""properties"": {""magmom"": 0.0}, ""label"": ""Er"", ""xyz"": [1.7470401883607165, 3.026132707455221, 13.62851636473001]}, {""species"": [{""element"": ""Er"", ""occu"": 1}], ""abc"": [4.1390000000000015e-05, 2.4190000000000004e-05, 0.49999977], ""properties"": {""magmom"": 0.0}, ""label"": ""Er"", ""xyz"": [0.00010675063650520005, 0.00011947770298850003, 6.814243661087119]}, {""species"": [{""element"": ""O"", ""occu"": 1}], ""abc"": [0.33337097, 0.66669847, 0.41880212], ""properties"": {""magmom"": 0.0}, ""label"": ""O"", ""xyz"": [7.907824951518621e-05, 2.017573605351812, 5.707657775368086]}, {""species"": [{""element"": ""O"", ""occu"": 1}], ""abc"": [0.33329405, 0.66663629, 0.08119775], ""properties"": {""magmom"": -0.0}, ""label"": ""O"", ""xyz"": [-8.402647774202477e-05, 2.0173541936242905, 1.1066187812892987]}, {""species"": [{""element"": ""O"", ""occu"": 1}], ""abc"": [0.66669799, 0.33335395, 0.58121307], ""properties"": {""magmom"": -0.0}, ""label"": ""O"", ""xyz"": [1.7472306433698959, 1.0088348771996754, 7.921067652789314]}, {""species"": [{""element"": ""O"", ""occu"": 1}], ""abc"": [0.6666359900000001, 0.33331737, 0.91878695], ""properties"": {""magmom"": -0.0}, ""label"": ""O"", ""xyz"": [1.74708086786114, 1.0087554228589934, 12.521691111553345]}]}",CsErO2,194,2.8231999999999995,0.000918799791664,0.0034920515769649,0.0054921202279308,0.0024456285043191
mp-999289,"{""@module"": ""pymatgen.core.structure"", ""@class"": ""Structure"", ""charge"": 0, ""lattice"": {""matrix"": [[-2.17473428, -3.766747709999999, -1e-08], [-4.34946546, -3.0000000000000004e-08, -1e-08], [-2.17473428, -1.25558292, -7.69971401]], ""pbc"": [true, true, true], ""a"": 4.349466346507047, ""b"": 4.34946546, ""c"": 8.098861246705805, ""alpha"": 74.42357654499278, ""beta"": 74.42357709189726, ""gamma"": 59.99998277015352, ""volume"": 126.14702468837365}, ""properties"": {}, ""sites"": [{""species"": [{""element"": ""Pr"", ""occu"": 1}], ""abc"": [-0.0, -0.0, 0.0], ""properties"": {""magmom"": -0.0}, ""label"": ""Pr"", ""xyz"": [0.0, 0.0, 0.0]}, {""species"": [{""element"": ""Tl"", ""occu"": 1}], ""abc"": [0.5, 0.5, 0.5], ""properties"": {""magmom"": -0.0}, ""label"": ""Tl"", ""xyz"": [-4.34946701, -2.5111653299999994, -3.849857015]}, {""species"": [{""element"": ""Se"", ""occu"": 1}], ""abc"": [0.73768559, 0.73768559, 0.78694322], ""properties"": {""magmom"": 0.0}, ""label"": ""Se"", ""xyz"": [-6.524200531427328, -3.766747995004868, -6.059237750862224]}, {""species"": [{""element"": ""Se"", ""occu"": 1}], ""abc"": [0.26231441, 0.26231441, 0.21305678], ""properties"": {""magmom"": 0.0}, ""label"": ""Se"", ""xyz"": [-2.174733488572672, -1.2555826649951307, -1.640476279137776]}]}",PrTlSe2,166,1.2793,0.0,0.0227065397950108,0.0446590675633865,0.0146784015756706
mp-623024,"{""@module"": ""pymatgen.core.structure"", ""@class"": ""Structure"", ""charge"": 0, ""lattice"": {""matrix"": [[4.69251143, 0.04660046, 3.17424823], [1.70936438, 4.3703257, 3.174273239999999], [0.06752656, 0.04655791, 5.66488807]], ""pbc"": [true, true, true], ""a"": 5.665482057972736, ""b"": 5.665481789739807, ""c"": 5.665481826015977, ""alpha"": 55.23864280206703, ""beta"": 55.238652574604316, ""gamma"": 55.23864669507905, ""volume"": 114.35551400031169}, ""properties"": {}, ""sites"": [{""species"": [{""element"": ""Ti"", ""occu"": 1}], ""abc"": [0.5, 0.5, 0.5], ""properties"": {""magmom"": 0.0}, ""label"": ""Ti"", ""xyz"": [3.234701185, 2.231742035, 6.006704769999999]}, {""species"": [{""element"": ""Cd"", ""occu"": 1}], ""abc"": [0.0, -0.0, -0.0], ""properties"": {""magmom"": -0.0}, ""label"": ""Cd"", ""xyz"": [0.0, 0.0, 0.0]}, {""species"": [{""element"": ""F"", ""occu"": 1}], ""abc"": [0.8574439500000001, 0.59394449, 0.27626407000000003], ""properties"": {""magmom"": -0.0}, ""label"": ""F"", ""xyz"": [5.0574882531613135, 2.6485504292219044, 6.172087075576801]}, {""species"": [{""element"": ""F"", ""occu"": 1}], ""abc"": [0.72373593, 0.14255605, 0.40605551], ""properties"": {""magmom"": -0.0}, ""label"": ""F"", ""xyz"": [3.6672388896095245, 0.6756478921515968, 5.0500883638617715]}, {""species"": [{""element"": ""F"", ""occu"": 1}], ""abc"": [0.27626407000000003, 0.8574439500000001, 0.59394449], ""properties"": {""magmom"": -0.0}, ""label"": ""F"", ""xyz"": [2.8021634803904756, 3.7878361778484035, 6.963321176138228]}, {""species"": [{""element"": ""F"", ""occu"": 1}], ""abc"": [0.59394449, 0.27626407000000003, 0.8574439500000001], ""properties"": {""magmom"": -0.0}, ""label"": ""F"", ""xyz"": [3.317227509178659, 1.274962849810209, 7.6195888937239165]}, {""species"": [{""element"": ""F"", ""occu"": 1}], ""abc"": [0.14255605, 0.40605551, 0.72373593], ""properties"": {""magmom"": -0.0}, ""label"": ""F"", ""xyz"": [1.4119141168386862, 1.8149336407780963, 5.8413224644231985]}, {""species"": [{""element"": ""F"", ""occu"": 1}], ""abc"": [0.40605551, 0.72373593, 0.14255605], ""properties"": {""magmom"": -0.0}, ""label"": ""F"", ""xyz"": [3.1521748608213405, 3.1885212201897914, 4.393820646276083]}]}",TiCdF6,148,4.52,0.0,0.0023767195000585,0.0034925320506857,0.0016047260090498
mp-15796,"{""@module"": ""pymatgen.core.structure"", ""@class"": ""Structure"", ""charge"": 0, ""lattice"": {""matrix"": [[6.54801765, -2.01779475, -0.00489365], [6.54801765, 2.01779475, -0.00489365], [5.92879787, -0.0, 3.43473747]], ""pbc"": [true, true, true], ""a"": 6.851865056001133, ""b"": 6.851865056001133, ""c"": 6.851865853264973, ""alpha"": 34.253730872788296, ""beta"": 34.253730872788296, ""gamma"": 34.253723800840845, ""volume"": 90.88040626363966}, ""properties"": {}, ""sites"": [{""species"": [{""element"": ""Li"", ""occu"": 1}], ""abc"": [0.5, 0.5, 0.5], ""properties"": {""magmom"": -0.0}, ""label"": ""Li"", ""xyz"": [9.512416585, 0.0, 1.712475085]}, {""species"": [{""element"": ""Ho"", ""occu"": 1}], ""abc"": [0.0, 0.0, 0.0], ""properties"": {""magmom"": -0.0}, ""label"": ""Ho"", ""xyz"": [0.0, 0.0, 0.0]}, {""species"": [{""element"": ""Se"", ""occu"": 1}], ""abc"": [0.2492932, 0.2492932, 0.2492932], ""properties"": {""magmom"": 0.0}, ""label"": ""Se"", ""xyz"": [4.742761540415444, 0.0, 0.8538167877198439]}, {""species"": [{""element"": ""Se"", ""occu"": 1}], ""abc"": [0.7507068, 0.7507068, 0.7507068], ""properties"": {""magmom"": 0.0}, ""label"": ""Se"", ""xyz"": [14.282071629584557, 0.0, 2.571133382280156]}]}",LiHoSe2,166,1.5578999999999996,0.0,0.0164567023614173,0.0298521335157031,0.0106875445856246
mp-22898,"{""@module"": ""pymatgen.core.structure"", ""@class"": ""Structure"", ""charge"": 0, ""lattice"": {""matrix"": [[4.33858019, 0.0, 2.50487935], [1.44619407, 4.0904518, 2.50487935], [-1e-08, -1e-08, 5.00976072]], ""pbc"": [true, true, true], ""a"": 5.009760335896005, ""b"": 5.00975985195726, ""c"": 5.00976072, ""alpha"": 60.0000077523903, ""beta"": 60.0000109162825, ""gamma"": 59.99999630499975, ""volume"": 88.90698700144401}, ""properties"": {}, ""sites"": [{""species"": [{""element"": ""K"", ""occu"": 1}], ""abc"": [0.0, -0.0, -0.0], ""properties"": {""magmom"": 0.0}, ""label"": ""K"", ""xyz"": [0.0, 0.0, 0.0]}, {""species"": [{""element"": ""I"", ""occu"": 1}], ""abc"": [0.5, 0.5, 0.5], ""properties"": {""magmom"": 0.0}, ""label"": ""I"", ""xyz"": [2.892387125, 2.045225895, 5.00975971]}]}",KI,225,3.8373,0.0,0.003036147989599,0.0046461926027773,0.0020903940223736
mp-1217281,"{""@module"": ""pymatgen.core.structure"", ""@class"": ""Structure"", ""charge"": 0, ""lattice"": {""matrix"": [[2.029521, -3.515234, 0.0], [2.029521, 3.515234, 0.0], [0.0, 0.0, 7.008589]], ""pbc"": [true, true, true], ""a"": 4.059042444246796, ""b"": 4.059042444246796, ""c"": 7.008589, ""alpha"": 90.0, ""beta"": 90.0, ""gamma"": 120.00000724090256, ""volume"": 100.0019291165232}, ""properties"": {}, ""sites"": [{""species"": [{""element"": ""Th"", ""occu"": 1}], ""abc"": [0.666667, 0.333333, 0.716496], ""properties"": {""magmom"": -0.0}, ""label"": ""Th"", ""xyz"": [2.029521, -1.171747010156, 5.021625984144]}, {""species"": [{""element"": ""Th"", ""occu"": 1}], ""abc"": [0.0, 0.0, 0.28161], ""properties"": {""magmom"": 0.0}, ""label"": ""Th"", ""xyz"": [0.0, 0.0, 1.97368874829]}, {""species"": [{""element"": ""As"", ""occu"": 1}], ""abc"": [0.333333, 0.666667, 0.992294], ""properties"": {""magmom"": 0.0}, ""label"": ""As"", ""xyz"": [2.029521, 1.171747010156, 6.954580813165999]}, {""species"": [{""element"": ""N"", ""occu"": 1}], ""abc"": [0.666667, 0.333333, 0.381416], ""properties"": {""magmom"": 0.0}, ""label"": ""N"", ""xyz"": [2.029521, -1.171747010156, 2.673187982024]}, {""species"": [{""element"": ""O"", ""occu"": 1}], ""abc"": [0.0, 0.0, 0.628185], ""properties"": {""magmom"": 0.0}, ""label"": ""O"", ""xyz"": [0.0, 0.0, 4.402690480965]}]}",Th2AsNO,156,0.8677000000000001,0.0,0.0628572605385242,0.2794859988055992,0.027618784773396
mp-1221125,"{""@module"": ""pymatgen.core.structure"", ""@class"": ""Structure"", ""charge"": 0, ""lattice"": {""matrix"": [[6.84450456, -2.01901246, -0.00070991], [6.84450456, 2.01901246, -0.00070991], [6.24928749, -0.0, 3.44529603]], ""pbc"": [true, true, true], ""a"": 7.136081171726416, ""b"": 7.136081171726416, ""c"": 7.136081478444894, ""alpha"": 32.87033159765865, ""beta"": 32.87033159765865, ""gamma"": 32.870325733815655, ""volume"": 95.23997070706925}, ""properties"": {}, ""sites"": [{""species"": [{""element"": ""Na"", ""occu"": 1}], ""abc"": [0.5, 0.5, 0.5], ""properties"": {""magmom"": -0.0}, ""label"": ""Na"", ""xyz"": [9.969148305000001, 0.0, 1.721938105]}, {""species"": [{""element"": ""Bi"", ""occu"": 1}], ""abc"": [0.0, 0.0, -0.0], ""properties"": {""magmom"": -0.0}, ""label"": ""Bi"", ""xyz"": [0.0, 0.0, 0.0]}, {""species"": [{""element"": ""S"", ""occu"": 1}], ""abc"": [0.25352331, 0.25352331, 0.25352331], ""properties"": {""magmom"": 0.0}, ""label"": ""S"", ""xyz"": [5.054822952328979, 0.0, 0.8731028959894552]}, {""species"": [{""element"": ""S"", ""occu"": 1}], ""abc"": [0.74647669, 0.74647669, 0.74647669], ""properties"": {""magmom"": 0.0}, ""label"": ""S"", ""xyz"": [14.883473657671022, 0.0, 2.570773314010545]}]}",NaBiS2,166,1.4584,0.0,0.0323467767040315,0.0767357112786486,0.0199349069179855