id,structure_json,formula,spacegroup,bandgap,energy_above_hull,k_1064,k_755,k_1500
mp-996959,"{""@module"": ""pymatgen.core.structure"", ""@class"": ""Structure"", ""charge"": 0, ""lattice"": {""matrix"": [[-3.94553127, 0.0, -1.4671993300000001], [0.54559888, -3.90762623, -1.4671993300000001], [-0.01688971, -0.01941185, 6.0840983]], ""pbc"": [true, true, true], ""a"": 4.209500074415044, ""b"": 4.209500536309945, ""c"": 6.084152710631711, ""alpha"": 110.23916814978043, ""beta"": 110.239171346243, ""gamma"": 90.00001153671249, ""volume"": 94.02731333947166}, ""properties"": {}, ""sites"": [{""species"": [{""element"": ""Li"", ""occu"": 1}], ""abc"": [0.25, 0.75, 0.5], ""properties"": {""magmom"": -0.0}, ""label"": ""Li"", ""xyz"": [-0.5856285125, -2.9404255975, 1.5748498199999998]}, {""species"": [{""element"": ""Li"", ""occu"": 1}], ""abc"": [0.0, 0.0, 0.0], ""properties"": {""magmom"": -0.0}, ""label"": ""Li"", ""xyz"": [0.0, 0.0, 0.0]}, {""species"": [{""element"": ""Au"", ""occu"": 1}], ""abc"": [0.5, 0.5, 0.0], ""properties"": {""magmom"": 0.0}, ""label"": ""Au"", ""xyz"": [-1.699966195, -1.953813115, -1.4671993300000001]}, {""species"": [{""element"": ""Au"", ""occu"": 1}], ""abc"": [0.75, 0.25, 0.5], ""properties"": {""magmom"": 0.0}, ""label"": ""Au"", ""xyz"": [-2.8311935875, -0.9866124825, 1.5748498199999998]}, {""species"": [{""element"": ""O"", ""occu"": 1}], ""abc"": [0.125, 0.62992883, 0.75], ""properties"": {""magmom"": -0.0}, ""label"": ""O"", ""xyz"": [-0.16217022712228957, -2.4760853066412105, 3.4554426514263157]}, {""species"": [{""element"": ""O"", ""occu"": 1}], ""abc"": [0.625, 0.12007117, 0.75], ""properties"": {""magmom"": -0.0}, ""label"": ""O"", ""xyz"": [-2.41311363037771, -0.48375214085878915, 3.469905803573684]}, {""species"": [{""element"": ""O"", ""occu"": 1}], ""abc"": [0.37007117, 0.875, 0.25], ""properties"": {""magmom"": -0.0}, ""label"": ""O"", ""xyz"": [-0.986950780860486, -3.42402591375, -0.3057430114263162]}, {""species"": [{""element"": ""O"", ""occu"": 1}], ""abc"": [0.87992883, 0.375, 0.25], ""properties"": {""magmom"": -0.0}, ""label"": ""O"", ""xyz"": [-3.271409561639514, -1.47021279875, -0.32020616357368414]}]}",LiAuO2,98,1.5281000000000002,0.0,0.028184820837633,0.1005643491221379,0.0160856605855719
mp-239,"{""@module"": ""pymatgen.core.structure"", ""@class"": ""Structure"", ""charge"": 0, ""lattice"": {""matrix"": [[4.21601149, 0.0, 0.0], [-0.0, 6.9519550500000005, 0.0], [0.0, 0.0, 6.9519550500000005]], ""pbc"": [true, true, true], ""a"": 4.21601149, ""b"": 6.9519550500000005, ""c"": 6.9519550500000005, ""alpha"": 90.0, ""beta"": 90.0, ""gamma"": 90.0, ""volume"": 203.75848204461354}, ""properties"": {}, ""sites"": [{""species"": [{""element"": ""Ba"", ""occu"": 1}], ""abc"": [-0.0, 0.5, 0.5], ""properties"": {""magmom"": -0.0}, ""label"": ""Ba"", ""xyz"": [0.0, 3.4759775250000002, 3.4759775250000002]}, {""species"": [{""element"": ""Ba"", ""occu"": 1}], ""abc"": [-0.0, -0.0, 0.0], ""properties"": {""magmom"": -0.0}, ""label"": ""Ba"", ""xyz"": [0.0, 0.0, 0.0]}, {""species"": [{""element"": ""S"", ""occu"": 1}], ""abc"": [0.47518716, 0.82212087, 0.32212087], ""properties"": {""magmom"": 0.0}, ""label"": ""S"", ""xyz"": [2.0033945264604682, 5.715347333906894, 2.239369808906894]}, {""species"": [{""element"": ""S"", ""occu"": 1}], ""abc"": [0.5248128400000001, 0.32212087, 0.17787913], ""properties"": {""magmom"": 0.0}, ""label"": ""S"", ""xyz"": [2.212616963539532, 2.239369808906894, 1.2366077160931066]}, {""species"": [{""element"": ""S"", ""occu"": 1}], ""abc"": [0.2115096, -0.0, 0.5], ""properties"": {""magmom"": -0.0}, ""label"": ""S"", ""xyz"": [0.8917269038453038, 0.0, 3.4759775250000002]}, {""species"": [{""element"": ""S"", ""occu"": 1}], ""abc"": [0.788490399999999, 0.5, 0.0], ""properties"": {""magmom"": -0.0}, ""label"": ""S"", ""xyz"": [3.3242845861546915, 3.4759775250000002, 0.0]}, {""species"": [{""element"": ""S"", ""occu"": 1}], ""abc"": [0.47518716, 0.17787913, 0.67787913], ""properties"": {""magmom"": 0.0}, ""label"": ""S"", ""xyz"": [2.0033945264604682, 1.2366077160931066, 4.712585241093107]}, {""species"": [{""element"": ""S"", ""occu"": 1}], ""abc"": [0.5248128400000001, 0.67787913, 0.82212087], ""properties"": {""magmom"": 0.0}, ""label"": ""S"", ""xyz"": [2.212616963539532, 4.712585241093107, 5.715347333906894]}]}",BaS3,113,1.3624999999999994,0.0,0.0199111329864345,0.0914684275887183,0.0104927801974643
mp-1206742,"{""@module"": ""pymatgen.core.structure"", ""@class"": ""Structure"", ""charge"": 0, ""lattice"": {""matrix"": [[1.89353017, -3.27968952, -0.0], [1.89353017, 3.27968952, 0.0], [-0.0, -0.0, 3.86728588]], ""pbc"": [true, true, true], ""a"": 3.787059525845621, ""b"": 3.787059525845621, ""c"": 3.86728588, ""alpha"": 90.0, ""beta"": 90.0, ""gamma"": 119.99998577682193, ""volume"": 48.03316835320193}, ""properties"": {}, ""sites"": [{""species"": [{""element"": ""Er"", ""occu"": 1}], ""abc"": [0.0, -0.0, 0.0], ""properties"": {""magmom"": -0.0}, ""label"": ""Er"", ""xyz"": [0.0, 0.0, 0.0]}, {""species"": [{""element"": ""H"", ""occu"": 1}], ""abc"": [0.333333, 0.666667, 0.0], ""properties"": {""magmom"": 0.0}, ""label"": ""H"", ""xyz"": [1.89353017, 1.0932320264596802, 0.0]}, {""species"": [{""element"": ""Se"", ""occu"": 1}], ""abc"": [0.666667, 0.333333, 0.5], ""properties"": {""magmom"": -0.0}, ""label"": ""Se"", ""xyz"": [1.89353017, -1.0932320264596802, 1.93364294]}]}",ErHSe,187,1.4943000000000004,0.0,0.0182324585921051,0.0396152505179616,0.0116141227545003
mp-7929,"{""@module"": ""pymatgen.core.structure"", ""@class"": ""Structure"", ""charge"": 0, ""lattice"": {""matrix"": [[3.49956031, 0.0, 1.03613588], [1.24122732, 5.88585883, 2.23571208], [0.00314822, 0.01360429, 6.41733487]], ""pbc"": [true, true, true], ""a"": 3.649726006860059, ""b"": 6.417350538287688, ""c"": 6.417350062269744, ""alpha"": 69.48675247118003, ""beta"": 73.47917174860393, ""gamma"": 73.47916517659242, ""volume"": 132.07559366202557}, ""properties"": {}, ""sites"": [{""species"": [{""element"": ""Rb"", ""occu"": 1}], ""abc"": [0.80811179, 0.69188821, 0.69188821], ""properties"": {""magmom"": -0.0}, ""label"": ""Rb"", ""xyz"": [3.6890047112654383, 4.0817689780578155, 6.824254785951485]}, {""species"": [{""element"": ""Rb"", ""occu"": 1}], ""abc"": [0.19188821, 0.30811179, 0.30811179], ""properties"": {""magmom"": -0.0}, ""label"": ""Rb"", ""xyz"": [1.0549311387345615, 1.8176941419421848, 2.8649280440485154]}, {""species"": [{""element"": ""Pt"", ""occu"": 1}], ""abc"": [-0.0, -0.0, 0.0], ""properties"": {""magmom"": 0.0}, ""label"": ""Pt"", ""xyz"": [0.0, 0.0, 0.0]}, {""species"": [{""element"": ""S"", ""occu"": 1}], ""abc"": [0.5, 0.79109084, 0.20890916], ""properties"": {""magmom"": 0.0}, ""label"": ""S"", ""xyz"": [2.7323614102054443, 4.6590910667424135, 3.6273593244957567]}, {""species"": [{""element"": ""S"", ""occu"": 1}], ""abc"": [0.5, 0.20890916, 0.79109084], ""properties"": {""magmom"": 0.0}, ""label"": ""S"", ""xyz"": [2.011574439794556, 1.2403720532575864, 6.061823505504243]}]}",Rb2PtS2,71,1.2093000000000005,0.0,0.017884377829905,0.0411803745478334,0.0112527671300393
mp-23183,"{""@module"": ""pymatgen.core.structure"", ""@class"": ""Structure"", ""charge"": 0, ""lattice"": {""matrix"": [[7.47477076, 7.09e-06, -0.0], [-3.73739042, 6.47333638, 0.0], [0.0, 0.0, 4.24927627]], ""pbc"": [true, true, true], ""a"": 7.474770760003363, ""b"": 7.474768962325142, ""c"": 4.24927627, ""alpha"": 90.0, ""beta"": 90.0, ""gamma"": 119.99999821846623, ""volume"": 205.6085920320631}, ""properties"": {}, ""sites"": [{""species"": [{""element"": ""Nd"", ""occu"": 1}], ""abc"": [0.666667, 0.333333, 0.75], ""properties"": {""magmom"": -0.0}, ""label"": ""Nd"", ""xyz"": [3.73738743738706, 2.1577813622235698, 3.1869572025000004]}, {""species"": [{""element"": ""Nd"", ""occu"": 1}], ""abc"": [0.333333, 0.666667, 0.25], ""properties"": {""magmom"": -0.0}, ""label"": ""Nd"", ""xyz"": [-7.097387059840088e-06, 4.31556210777643, 1.0623190675]}, {""species"": [{""element"": ""Cl"", ""occu"": 1}], ""abc"": [0.61047738, 0.69664535, 0.75], ""properties"": {""magmom"": -0.0}, ""label"": ""Cl"", ""xyz"": [1.9595428124378613, 4.509624016397457, 3.1869572025000004]}, {""species"": [{""element"": ""Cl"", ""occu"": 1}], ""abc"": [0.91383203, 0.61047738, 0.25], ""properties"": {""magmom"": -0.0}, ""label"": ""Cl"", ""xyz"": [4.549092625756743, 3.951831912190177, 1.0623190675]}, {""species"": [{""element"": ""Cl"", ""occu"": 1}], ""abc"": [0.38952262, 0.30335465, 0.25], ""properties"": {""magmom"": -0.0}, ""label"": ""Cl"", ""xyz"": [1.777837527562138, 1.9637194536025429, 1.0623190675]}, {""species"": [{""element"": ""Cl"", ""occu"": 1}], ""abc"": [0.08616797, 0.38952262, 0.75], ""properties"": {""magmom"": -0.0}, ""label"": ""Cl"", ""xyz"": [-0.8117122857567431, 2.5215115578098226, 3.1869572025000004]}, {""species"": [{""element"": ""Cl"", ""occu"": 1}], ""abc"": [0.30335465, 0.91383203, 0.75], ""properties"": {""magmom"": -0.0}, ""label"": ""Cl"", ""xyz"": [-1.1478406066811186, 5.915544275792721, 3.1869572025000004]}, {""species"": [{""element"": ""Cl"", ""occu"": 1}], ""abc"": [0.69664535, 0.08616797, 0.25], ""properties"": {""magmom"": -0.0}, ""label"": ""Cl"", ""xyz"": [4.88522094668112, 0.5577991942072801, 1.0623190675]}]}",NdCl3,176,4.311100000000001,0.0,0.0033774246446583,0.0050376144620762,0.0022439915971588
mp-33723,"{""@module"": ""pymatgen.core.structure"", ""@class"": ""Structure"", ""charge"": 0, ""lattice"": {""matrix"": [[4.30962561, 2e-08, -0.0], [-2.15481178, 3.73224479, 0.0], [-0.0, -0.0, 6.80777322]], ""pbc"": [true, true, true], ""a"": 4.30962561, ""b"": 4.309624691282167, ""c"": 6.80777322, ""alpha"": 90.0, ""beta"": 90.0, ""gamma"": 119.99999105062984, ""volume"": 109.50015781714693}, ""properties"": {}, ""sites"": [{""species"": [{""element"": ""Bi"", ""occu"": 1}], ""abc"": [0.0, 0.0, 0.00614795], ""properties"": {""magmom"": -0.0}, ""label"": ""Bi"", ""xyz"": [0.0, 0.0, 0.041853849367899]}, {""species"": [{""element"": ""Te"", ""occu"": 1}], ""abc"": [0.333333, 0.666667, 0.26093199], ""properties"": {""magmom"": 0.0}, ""label"": ""Te"", ""xyz"": [-1.4714791300995955e-06, 2.4881644440815904, 1.7763658137633078]}, {""species"": [{""element"": ""Br"", ""occu"": 1}], ""abc"": [0.666667, 0.333333, 0.73292006], ""properties"": {""magmom"": -0.0}, ""label"": ""Br"", ""xyz"": [2.15481530147913, 1.24408036591841, 4.989553556868793]}]}",BiTeBr,156,1.3213000000000004,0.0,0.050515265454164,0.2081773003698088,0.0287226060429004
mp-1091384,"{""@module"": ""pymatgen.core.structure"", ""@class"": ""Structure"", ""charge"": 0, ""lattice"": {""matrix"": [[-3.87040962, 3.87040962, 3.87040962], [3.87040962, -3.87040962, 3.87040962], [3.87040962, 3.87040962, -3.87040962]], ""pbc"": [true, true, true], ""a"": 6.703746107943352, ""b"": 6.703746107943352, ""c"": 6.703746107943352, ""alpha"": 109.47122063449069, ""beta"": 109.47122063449069, ""gamma"": 109.47122063449069, ""volume"": 231.91603784571095}, ""properties"": {}, ""sites"": [{""species"": [{""element"": ""Nb"", ""occu"": 1}], ""abc"": [0.0, -0.0, -0.0], ""properties"": {""magmom"": -0.0}, ""label"": ""Nb"", ""xyz"": [0.0, 0.0, 0.0]}, {""species"": [{""element"": ""Tl"", ""occu"": 1}], ""abc"": [0.0, 0.5, 0.5], ""properties"": {""magmom"": -0.0}, ""label"": ""Tl"", ""xyz"": [3.87040962, 0.0, 0.0]}, {""species"": [{""element"": ""Tl"", ""occu"": 1}], ""abc"": [0.5, -0.0, 0.5], ""properties"": {""magmom"": -0.0}, ""label"": ""Tl"", ""xyz"": [0.0, 3.87040962, 0.0]}, {""species"": [{""element"": ""Tl"", ""occu"": 1}], ""abc"": [0.5, 0.5, -0.0], ""properties"": {""magmom"": -0.0}, ""label"": ""Tl"", ""xyz"": [0.0, 0.0, 3.87040962]}, {""species"": [{""element"": ""S"", ""occu"": 1}], ""abc"": [0.34217077, 0.0, 0.0], ""properties"": {""magmom"": 0.0}, ""label"": ""S"", ""xyz"": [-1.3243410398908075, 1.3243410398908075, 1.3243410398908075]}, {""species"": [{""element"": ""S"", ""occu"": 1}], ""abc"": [0.0, 0.34217077, 0.0], ""properties"": {""magmom"": 0.0}, ""label"": ""S"", ""xyz"": [1.3243410398908075, -1.3243410398908075, 1.3243410398908075]}, {""species"": [{""element"": ""S"", ""occu"": 1}], ""abc"": [0.0, 0.0, 0.34217077], ""properties"": {""magmom"": 0.0}, ""label"": ""S"", ""xyz"": [1.3243410398908075, 1.3243410398908075, -1.3243410398908075]}, {""species"": [{""element"": ""S"", ""occu"": 1}], ""abc"": [0.65782923, 0.65782923, 0.65782923], ""properties"": {""magmom"": 0.0}, ""label"": ""S"", ""xyz"": [2.546068580109193, 2.546068580109193, 2.546068580109193]}]}",NbTl3S4,217,2.5405,0.0,0.0207839220330578,0.0365439631736663,0.0128968042150181
mp-12444,"{""@module"": ""pymatgen.core.structure"", ""@class"": ""Structure"", ""charge"": 0.0, ""lattice"": {""matrix"": [[3.93943137, 0.0, 0.0], [0.0, 3.93943137, 0.0], [0.0, 0.0, 8.64701502]], ""pbc"": [true, true, true], ""a"": 3.93943137, ""b"": 3.93943137, ""c"": 8.64701502, ""alpha"": 90.0, ""beta"": 90.0, ""gamma"": 90.0, ""volume"": 134.19405957745002}, ""properties"": {}, ""sites"": [{""species"": [{""element"": ""Sr"", ""occu"": 1}], ""abc"": [0.0, 0.5, 0.83012694], ""properties"": {""magmom"": -0.0}, ""label"": ""Sr"", ""xyz"": [0.0, 1.969715685, 7.178120118686638]}, {""species"": [{""element"": ""Sr"", ""occu"": 1}], ""abc"": [0.5, -0.0, 0.16987306], ""properties"": {""magmom"": -0.0}, ""label"": ""Sr"", ""xyz"": [1.969715685, 0.0, 1.468894901313361]}, {""species"": [{""element"": ""Cu"", ""occu"": 1}], ""abc"": [0.5, 0.5, 0.5], ""properties"": {""magmom"": 0.0}, ""label"": ""Cu"", ""xyz"": [1.969715685, 1.969715685, 4.32350751]}, {""species"": [{""element"": ""Cu"", ""occu"": 1}], ""abc"": [-0.0, -0.0, 0.5], ""properties"": {""magmom"": 0.0}, ""label"": ""Cu"", ""xyz"": [0.0, 0.0, 4.32350751]}, {""species"": [{""element"": ""S"", ""occu"": 1}], ""abc"": [0.5, 0.0, 0.66018195], ""properties"": {""magmom"": 0.0}, ""label"": ""S"", ""xyz"": [1.969715685, 0.0, 5.708603237582889]}, {""species"": [{""element"": ""S"", ""occu"": 1}], ""abc"": [-0.0, 0.5, 0.33981805], ""properties"": {""magmom"": 0.0}, ""label"": ""S"", ""xyz"": [0.0, 1.969715685, 2.9384117824171105]}, {""species"": [{""element"": ""F"", ""occu"": 1}], ""abc"": [0.5, 0.5, 0.0], ""properties"": {""magmom"": -0.0}, ""label"": ""F"", ""xyz"": [1.969715685, 1.969715685, 0.0]}, {""species"": [{""element"": ""F"", ""occu"": 1}], ""abc"": [-0.0, 0.0, -0.0], ""properties"": {""magmom"": -0.0}, ""label"": ""F"", ""xyz"": [0.0, 0.0, 0.0]}]}",SrCuSF,129,1.4940000000000009,0.0,0.0181688117598041,0.0751341495942276,0.0091914502029533
mp-1672,"{""@module"": ""pymatgen.core.structure"", ""@class"": ""Structure"", ""charge"": 0, ""lattice"": {""matrix"": [[3.49343015, 1e-08, 2.01693372], [1.16447774, 3.29363789, 2.01693372], [-0.0, 0.0, 4.03386744]], ""pbc"": [true, true, true], ""a"": 4.033866116246554, ""b"": 4.033866704326284, ""c"": 4.03386744, ""alpha"": 59.999993967105716, ""beta"": 59.99998914455447, ""gamma"": 59.99998291656609, ""volume"": 46.414057530527266}, ""properties"": {}, ""sites"": [{""species"": [{""element"": ""Ca"", ""occu"": 1}], ""abc"": [-0.0, 0.0, 0.0], ""properties"": {""magmom"": 0.0}, ""label"": ""Ca"", ""xyz"": [0.0, 0.0, 0.0]}, {""species"": [{""element"": ""S"", ""occu"": 1}], ""abc"": [0.5, 0.5, 0.5], ""properties"": {""magmom"": -0.0}, ""label"": ""S"", ""xyz"": [2.328953945, 1.64681895, 4.03386744]}]}",CaS,225,2.3785,0.0,0.007767364018104,0.0122274913100399,0.0052471412486504
mp-754605,"{""@module"": ""pymatgen.core.structure"", ""@class"": ""Structure"", ""charge"": 0, ""lattice"": {""matrix"": [[0.0, 4.30961506, -0.0], [2.15480703, -2.15480703, 4.97801576], [4.30961506, 0.0, 0.0]], ""pbc"": [true, true, true], ""a"": 4.30961506, ""b"": 5.836696632503973, ""c"": 4.30961506, ""alpha"": 68.33478303005124, ""beta"": 90.0, ""gamma"": 111.66521696994877, ""volume"": 92.45560133069944}, ""properties"": {}, ""sites"": [{""species"": [{""element"": ""Li"", ""occu"": 1}], ""abc"": [0.25, 0.5, 0.25], ""properties"": {""magmom"": 0.0}, ""label"": ""Li"", ""xyz"": [2.15480728, 2.499999998128999e-07, 2.48900788]}, {""species"": [{""element"": ""Li"", ""occu"": 1}], ""abc"": [0.5, 0.0, 0.5], ""properties"": {""magmom"": 0.0}, ""label"": ""Li"", ""xyz"": [2.15480753, 2.15480753, 0.0]}, {""species"": [{""element"": ""Lu"", ""occu"": 1}], ""abc"": [0.0, 0.0, -0.0], ""properties"": {""magmom"": 0.0}, ""label"": ""Lu"", ""xyz"": [0.0, 0.0, 0.0]}, {""species"": [{""element"": ""Lu"", ""occu"": 1}], ""abc"": [0.75, 0.5, 0.75], ""properties"": {""magmom"": 0.0}, ""label"": ""Lu"", ""xyz"": [4.30961481, 2.1548077799999996, 2.48900788]}, {""species"": [{""element"": ""O"", ""occu"": 1}], ""abc"": [0.776118699999999, 0.5522374, 0.223881299999999], ""properties"": {""magmom"": 0.0}, ""label"": ""O"", ""xyz"": [2.1548072538812955, 2.1548078061186957, 2.749046480461424]}, {""species"": [{""element"": ""O"", ""occu"": 1}], ""abc"": [0.223881299999999, 0.447762599999999, 0.776118699999999], ""properties"": {""magmom"": 0.0}, ""label"": ""O"", ""xyz"": [4.309614836118694, 2.2388129761186093e-07, 2.228969279538571]}, {""species"": [{""element"": ""O"", ""occu"": 1}], ""abc"": [0.526118699999999, 0.052237399999999004, 0.9738813], ""properties"": {""magmom"": 0.0}, ""label"": ""O"", ""xyz"": [4.309615033881297, 2.1548075561186977, 0.260038600461419]}, {""species"": [{""element"": ""O"", ""occu"": 1}], ""abc"": [0.9738813, 0.9477626, 0.526118699999999], ""properties"": {""magmom"": 0.0}, ""label"": ""O"", ""xyz"": [4.3096145861186965, 2.154808003881299, 4.7179771595385755]}]}",LiLuO2,141,4.5263,0.0,0.0022560735472828,0.0033566196318157,0.0015631363196348