id,structure_json,formula,spacegroup,bandgap,energy_above_hull,k_1064,k_755,k_1500
mp-865500,"{""@module"": ""pymatgen.core.structure"", ""@class"": ""Structure"", ""charge"": 0, ""lattice"": {""matrix"": [[7.94834719, -0.0, 0.0], [-0.0, 3.94986172, 0.0], [0.0, 0.0, 3.94986172]], ""pbc"": [true, true, true], ""a"": 7.94834719, ""b"": 3.94986172, ""c"": 3.94986172, ""alpha"": 90.0, ""beta"": 90.0, ""gamma"": 90.0, ""volume"": 124.00540431410766}, ""properties"": {}, ""sites"": [{""species"": [{""element"": ""Na"", ""occu"": 1}], ""abc"": [0.0, -0.0, -0.0], ""properties"": {""magmom"": -0.0}, ""label"": ""Na"", ""xyz"": [0.0, 0.0, 0.0]}, {""species"": [{""element"": ""Na"", ""occu"": 1}], ""abc"": [0.5, -0.0, -0.0], ""properties"": {""magmom"": -0.0}, ""label"": ""Na"", ""xyz"": [3.974173595, 0.0, 0.0]}, {""species"": [{""element"": ""Hf"", ""occu"": 1}], ""abc"": [0.25163683, 0.5, 0.5], ""properties"": {""magmom"": -0.0}, ""label"": ""Hf"", ""xyz"": [2.0000968906310073, 1.97493086, 1.97493086]}, {""species"": [{""element"": ""Hf"", ""occu"": 1}], ""abc"": [0.74836417, 0.5, 0.5], ""properties"": {""magmom"": -0.0}, ""label"": ""Hf"", ""xyz"": [5.948258247716182, 1.97493086, 1.97493086]}, {""species"": [{""element"": ""O"", ""occu"": 1}], ""abc"": [0.19948253, 0.5, 0.0], ""properties"": {""magmom"": 0.0}, ""label"": ""O"", ""xyz"": [1.5855564067795906, 1.97493086, 0.0]}, {""species"": [{""element"": ""O"", ""occu"": 1}], ""abc"": [0.80051647, 0.5, 0.0], ""properties"": {""magmom"": 0.0}, ""label"": ""O"", ""xyz"": [6.36278283487322, 1.97493086, 0.0]}, {""species"": [{""element"": ""O"", ""occu"": 1}], ""abc"": [0.5, 0.5, 0.5], ""properties"": {""magmom"": 0.0}, ""label"": ""O"", ""xyz"": [3.974173595, 1.97493086, 1.97493086]}, {""species"": [{""element"": ""O"", ""occu"": 1}], ""abc"": [0.19948253, -0.0, 0.5], ""properties"": {""magmom"": 0.0}, ""label"": ""O"", ""xyz"": [1.5855564067795906, 0.0, 1.97493086]}, {""species"": [{""element"": ""O"", ""occu"": 1}], ""abc"": [0.80051647, 0.0, 0.5], ""properties"": {""magmom"": 0.0}, ""label"": ""O"", ""xyz"": [6.36278283487322, 0.0, 1.97493086]}]}",Na2Hf2O5,123,1.9732,0.0,0.0035884846928234,0.0053866107057002,0.0024463274919082
mp-7768,"{""@module"": ""pymatgen.core.structure"", ""@class"": ""Structure"", ""charge"": 0, ""lattice"": {""matrix"": [[4.04042189, -1e-08, 0.0], [-2.02021197, 3.49910833, 0.0], [-0.0, -0.0, 7.18960449]], ""pbc"": [true, true, true], ""a"": 4.04042189, ""b"": 4.040422689373807, ""c"": 7.18960449, ""alpha"": 90.0, ""beta"": 90.0, ""gamma"": 120.00001038092911, ""volume"": 101.64572146782767}, ""properties"": {}, ""sites"": [{""species"": [{""element"": ""Th"", ""occu"": 1}], ""abc"": [0.666667, 0.333333, 0.703589799999999], ""properties"": {""magmom"": -0.0}, ""label"": ""Th"", ""xyz"": [2.0202126235446203, 1.1663682702972198, 5.058532385198195]}, {""species"": [{""element"": ""Th"", ""occu"": 1}], ""abc"": [0.333333, 0.666667, 0.2964102], ""properties"": {""magmom"": -0.0}, ""label"": ""Th"", ""xyz"": [-2.7035446199530355e-06, 2.33274004970278, 2.131072104801798]}, {""species"": [{""element"": ""Se"", ""occu"": 1}], ""abc"": [0.0, 0.0, -0.0], ""properties"": {""magmom"": 0.0}, ""label"": ""Se"", ""xyz"": [0.0, 0.0, 0.0]}, {""species"": [{""element"": ""N"", ""occu"": 1}], ""abc"": [0.333333, 0.666667, 0.62642018], ""properties"": {""magmom"": -0.0}, ""label"": ""N"", ""xyz"": [-2.7035446199530355e-06, 2.33274004970278, 4.503713338754608]}, {""species"": [{""element"": ""N"", ""occu"": 1}], ""abc"": [0.666667, 0.333333, 0.37357982], ""properties"": {""magmom"": -0.0}, ""label"": ""N"", ""xyz"": [2.0202126235446203, 1.1663682702972198, 2.6858911512453916]}]}",Th2SeN2,164,1.3536,0.0,0.0154427085341265,0.0336727409464062,0.0095941849449528
mp-2133,"{""@module"": ""pymatgen.core.structure"", ""@class"": ""Structure"", ""charge"": 0, ""lattice"": {""matrix"": [[3.23735118, 0.0, 0.0], [-1.61867509, 2.80362829, 0.0], [0.0, -0.0, 5.2220613]], ""pbc"": [true, true, true], ""a"": 3.23735118, ""b"": 3.2373508669087494, ""c"": 5.2220613, ""alpha"": 90.0, ""beta"": 90.0, ""gamma"": 119.99999298106427, ""volume"": 47.397148259900405}, ""properties"": {}, ""sites"": [{""species"": [{""element"": ""Zn"", ""occu"": 1}], ""abc"": [0.666667, 0.333333, 0.5005917], ""properties"": {""magmom"": 0.0}, ""label"": ""Zn"", ""xyz"": [1.6186773753420902, 0.9345418287905699, 2.61412054367121]}, {""species"": [{""element"": ""Zn"", ""occu"": 1}], ""abc"": [0.333333, 0.666667, 0.0005917], ""properties"": {""magmom"": 0.0}, ""label"": ""Zn"", ""xyz"": [-1.2853420898739643e-06, 1.8690864612094298, 0.00308989367121]}, {""species"": [{""element"": ""O"", ""occu"": 1}], ""abc"": [0.666667, 0.333333, 0.8797183], ""properties"": {""magmom"": 0.0}, ""label"": ""O"", ""xyz"": [1.6186773753420902, 0.9345418287905699, 4.59394288933179]}, {""species"": [{""element"": ""O"", ""occu"": 1}], ""abc"": [0.333333, 0.666667, 0.3797183], ""properties"": {""magmom"": 0.0}, ""label"": ""O"", ""xyz"": [-1.2853420898739643e-06, 1.8690864612094298, 1.98291223933179]}]}",ZnO,186,0.7361000000000001,0.0,0.3272964789538055,0.271461960247547,0.2371907049324838
mp-8175,"{""@module"": ""pymatgen.core.structure"", ""@class"": ""Structure"", ""charge"": 0, ""lattice"": {""matrix"": [[3.31534541, -0.0077329, 5.49739644], [1.5234998100000001, 2.94457495, 5.49739644], [-0.01274142, -0.0077329, 6.41971368]], ""pbc"": [true, true, true], ""a"": 6.419730726741983, ""b"": 6.419730596042346, ""c"": 6.419730981490203, ""alpha"": 31.206841097672225, ""beta"": 31.206845051720105, ""gamma"": 31.206847697732442, ""volume"": 63.02965927008807}, ""properties"": {}, ""sites"": [{""species"": [{""element"": ""K"", ""occu"": 1}], ""abc"": [0.5, 0.5, 0.5], ""properties"": {""magmom"": 0.0}, ""label"": ""K"", ""xyz"": [2.4130518999999997, 1.4645545749999997, 8.70725328]}, {""species"": [{""element"": ""Tl"", ""occu"": 1}], ""abc"": [-0.0, 0.0, 0.0], ""properties"": {""magmom"": -0.0}, ""label"": ""Tl"", ""xyz"": [0.0, 0.0, 0.0]}, {""species"": [{""element"": ""O"", ""occu"": 1}], ""abc"": [0.73208426, 0.73208426, 0.73208426], ""properties"": {""magmom"": 0.0}, ""label"": ""O"", ""xyz"": [3.5331146291061883, 2.1443547045369793, 12.748886148242747]}, {""species"": [{""element"": ""O"", ""occu"": 1}], ""abc"": [0.26791574, 0.26791574, 0.26791574], ""properties"": {""magmom"": 0.0}, ""label"": ""O"", ""xyz"": [1.2929891708938122, 0.784754445463021, 4.665620411757255]}]}",KTlO2,166,0.8906999999999998,0.0,0.0440373836585814,0.1854555209482469,0.0168910526102643
mp-3524,"{""@module"": ""pymatgen.core.structure"", ""@class"": ""Structure"", ""charge"": 0, ""lattice"": {""matrix"": [[3.97940577, -0.0, -2.15160829], [-1.16334384, 3.80556135, -2.15160829], [0.03464096, 0.04681297, 4.81983236]], ""pbc"": [true, true, true], ""a"": 4.52383559779818, ""b"": 4.5238351331891495, ""c"": 4.820184169590734, ""alpha"": 117.98624106605409, ""beta"": 117.98623748018477, ""gamma"": 89.99999707655081, ""volume"": 73.79256507501633}, ""properties"": {}, ""sites"": [{""species"": [{""element"": ""Li"", ""occu"": 1}], ""abc"": [0.5, 0.5, -0.0], ""properties"": {""magmom"": -0.0}, ""label"": ""Li"", ""xyz"": [1.408030965, 1.902780675, -2.15160829]}, {""species"": [{""element"": ""Li"", ""occu"": 1}], ""abc"": [0.75, 0.25, 0.5], ""properties"": {""magmom"": -0.0}, ""label"": ""Li"", ""xyz"": [2.7110388475000002, 0.9747968225, 0.2583078900000002]}, {""species"": [{""element"": ""P"", ""occu"": 1}], ""abc"": [-0.0, 0.0, -0.0], ""properties"": {""magmom"": -0.0}, ""label"": ""P"", ""xyz"": [0.0, 0.0, 0.0]}, {""species"": [{""element"": ""P"", ""occu"": 1}], ""abc"": [0.25, 0.75, 0.5], ""properties"": {""magmom"": -0.0}, ""label"": ""P"", ""xyz"": [0.1396640425, 2.8775774975000004, 0.2583078900000002]}, {""species"": [{""element"": ""N"", ""occu"": 1}], ""abc"": [0.29347617, 0.375, 0.25], ""properties"": {""magmom"": -0.0}, ""label"": ""N"", ""xyz"": [0.7402670642555007, 1.4387887487500002, -0.23334077903944905]}, {""species"": [{""element"": ""N"", ""occu"": 1}], ""abc"": [0.9565238300000001, 0.875, 0.25], ""properties"": {""magmom"": -0.0}, ""label"": ""N"", ""xyz"": [2.7971308282444998, 3.3415694237499998, -2.7357637659605505]}, {""species"": [{""element"": ""N"", ""occu"": 1}], ""abc"": [0.125, 0.70652383, 0.75], ""properties"": {""magmom"": -0.0}, ""label"": ""N"", ""xyz"": [-0.2985237041937071, 2.7238295078019705, 1.82576070403945]}, {""species"": [{""element"": ""N"", ""occu"": 1}], ""abc"": [0.625, 0.04347617, 0.75], ""properties"": {""magmom"": -0.0}, ""label"": ""N"", ""xyz"": [2.4625315916937076, 0.2005609596980295, 2.176575400960551]}]}",LiPN2,122,3.7826,0.0,0.0024890924979637,0.003733732118666,0.0017566195056485
mp-999265,"{""@module"": ""pymatgen.core.structure"", ""@class"": ""Structure"", ""charge"": 0, ""lattice"": {""matrix"": [[-2.0343043, -3.52351851, 0.0], [-4.06860962, 1e-08, 0.0], [-2.0343043, -1.17450583, -7.64900875]], ""pbc"": [true, true, true], ""a"": 4.0686086903646945, ""b"": 4.06860962, ""c"": 8.001574394285106, ""alpha"": 75.27156203215402, ""beta"": 75.27156407932425, ""gamma"": 60.00000087553215, ""volume"": 109.65482276389511}, ""properties"": {}, ""sites"": [{""species"": [{""element"": ""Rb"", ""occu"": 1}], ""abc"": [-0.0, 0.0, -0.0], ""properties"": {""magmom"": 0.0}, ""label"": ""Rb"", ""xyz"": [0.0, 0.0, 0.0]}, {""species"": [{""element"": ""Y"", ""occu"": 1}], ""abc"": [0.5, 0.5, 0.5], ""properties"": {""magmom"": -0.0}, ""label"": ""Y"", ""xyz"": [-4.068609110000001, -2.349012165, -3.824504375]}, {""species"": [{""element"": ""S"", ""occu"": 1}], ""abc"": [0.76915173, 0.76915173, 0.69254682], ""properties"": {""magmom"": 0.0}, ""label"": ""S"", ""xyz"": [-6.102917773486409, -3.523520627599966, -5.2972966859646755]}, {""species"": [{""element"": ""S"", ""occu"": 1}], ""abc"": [0.23084827, 0.23084827, 0.30745318], ""properties"": {""magmom"": 0.0}, ""label"": ""S"", ""xyz"": [-2.0343004465135923, -1.1745037024000344, -2.351712064035325]}]}",RbYS2,166,2.3470999999999997,0.0,0.0095425072324953,0.0158369188499761,0.0061636946495205
mp-24424,"{""@module"": ""pymatgen.core.structure"", ""@class"": ""Structure"", ""charge"": 0, ""lattice"": {""matrix"": [[4.56529887, 0.0, -0.0], [0.0, 4.56529887, 0.0], [0.0, 0.0, 7.44013322]], ""pbc"": [true, true, true], ""a"": 4.56529887, ""b"": 4.56529887, ""c"": 7.44013322, ""alpha"": 90.0, ""beta"": 90.0, ""gamma"": 90.0, ""volume"": 155.06691263191078}, ""properties"": {}, ""sites"": [{""species"": [{""element"": ""Ba"", ""occu"": 1}], ""abc"": [0.5, -0.0, 0.80598992], ""properties"": {""magmom"": -0.0}, ""label"": ""Ba"", ""xyz"": [2.282649435, 0.0, 5.996672378777142]}, {""species"": [{""element"": ""Ba"", ""occu"": 1}], ""abc"": [-0.0, 0.5, 0.19401008], ""properties"": {""magmom"": -0.0}, ""label"": ""Ba"", ""xyz"": [0.0, 2.282649435, 1.4434608412228576]}, {""species"": [{""element"": ""H"", ""occu"": 1}], ""abc"": [0.5, 0.5, -0.0], ""properties"": {""magmom"": 0.0}, ""label"": ""H"", ""xyz"": [2.282649435, 2.282649435, 0.0]}, {""species"": [{""element"": ""H"", ""occu"": 1}], ""abc"": [-0.0, -0.0, -0.0], ""properties"": {""magmom"": 0.0}, ""label"": ""H"", ""xyz"": [0.0, 0.0, 0.0]}, {""species"": [{""element"": ""Br"", ""occu"": 1}], ""abc"": [0.0, 0.5, 0.65621643], ""properties"": {""magmom"": 0.0}, ""label"": ""Br"", ""xyz"": [0.0, 2.282649435, 4.882337660352804]}, {""species"": [{""element"": ""Br"", ""occu"": 1}], ""abc"": [0.5, 0.0, 0.34378357], ""properties"": {""magmom"": 0.0}, ""label"": ""Br"", ""xyz"": [2.282649435, 0.0, 2.5577955596471953]}]}",BaHBr,129,3.2300000000000004,0.0,0.0041769236719611,0.0062622800163356,0.0028553605693987
mp-757,"{""@module"": ""pymatgen.core.structure"", ""@class"": ""Structure"", ""charge"": 0, ""lattice"": {""matrix"": [[4.341471, 0.0, 0.0], [-2.170735999999999, 3.759825, 0.0], [0.0, 0.0, 7.745609]], ""pbc"": [true, true, true], ""a"": 4.341471, ""b"": 4.341471963783826, ""c"": 7.745609, ""alpha"": 90.0, ""beta"": 90.0, ""gamma"": 120.00000027594821, ""volume"": 126.43290177520575}, ""properties"": {}, ""sites"": [{""species"": [{""element"": ""Li"", ""occu"": 1}], ""abc"": [0.0, 0.0, 0.25], ""properties"": {""magmom"": -0.0}, ""label"": ""Li"", ""xyz"": [0.0, 0.0, 1.93640225]}, {""species"": [{""element"": ""Li"", ""occu"": 1}], ""abc"": [0.0, 0.0, 0.75], ""properties"": {""magmom"": -0.0}, ""label"": ""Li"", ""xyz"": [0.0, 0.0, 5.8092067499999995]}, {""species"": [{""element"": ""Li"", ""occu"": 1}], ""abc"": [0.333333, 0.666667, 0.585214999999999], ""properties"": {""magmom"": 0.0}, ""label"": ""Li"", ""xyz"": [-2.50406899926503e-06, 2.506551253275, 4.532846570934993]}, {""species"": [{""element"": ""Li"", ""occu"": 1}], ""abc"": [0.666667, 0.333333, 0.085215], ""properties"": {""magmom"": 0.0}, ""label"": ""Li"", ""xyz"": [2.1707375040690007, 1.2532737467250001, 0.660042070935]}, {""species"": [{""element"": ""Li"", ""occu"": 1}], ""abc"": [0.666667, 0.333333, 0.414784999999999], ""properties"": {""magmom"": 0.0}, ""label"": ""Li"", ""xyz"": [2.1707375040690007, 1.2532737467250001, 3.2127624290649925]}, {""species"": [{""element"": ""Li"", ""occu"": 1}], ""abc"": [0.333333, 0.666667, 0.914785], ""properties"": {""magmom"": 0.0}, ""label"": ""Li"", ""xyz"": [-2.50406899926503e-06, 2.506551253275, 7.085566929065]}, {""species"": [{""element"": ""As"", ""occu"": 1}], ""abc"": [0.333333, 0.666667, 0.25], ""properties"": {""magmom"": -0.0}, ""label"": ""As"", ""xyz"": [-2.50406899926503e-06, 2.506551253275, 1.93640225]}, {""species"": [{""element"": ""As"", ""occu"": 1}], ""abc"": [0.666667, 0.333333, 0.75], ""properties"": {""magmom"": -0.0}, ""label"": ""As"", ""xyz"": [2.1707375040690007, 1.2532737467250001, 5.8092067499999995]}]}",Li3As,194,0.7083999999999997,0.0,0.0286216087995059,0.0708264978063726,0.0176560638109453
mp-1183920,"{""@module"": ""pymatgen.core.structure"", ""@class"": ""Structure"", ""charge"": 0, ""lattice"": {""matrix"": [[4.42986213, 0.0, 0.0], [-0.0, 4.42986213, 0.0], [-0.0, -0.0, 4.42986213]], ""pbc"": [true, true, true], ""a"": 4.42986213, ""b"": 4.42986213, ""c"": 4.42986213, ""alpha"": 90.0, ""beta"": 90.0, ""gamma"": 90.0, ""volume"": 86.93019019772653}, ""properties"": {}, ""sites"": [{""species"": [{""element"": ""Cs"", ""occu"": 1}], ""abc"": [-0.0, -0.0, -0.0], ""properties"": {""magmom"": 0.0}, ""label"": ""Cs"", ""xyz"": [0.0, 0.0, 0.0]}, {""species"": [{""element"": ""Pa"", ""occu"": 1}], ""abc"": [0.5, 0.5, 0.5], ""properties"": {""magmom"": -0.0}, ""label"": ""Pa"", ""xyz"": [2.214931065, 2.214931065, 2.214931065]}, {""species"": [{""element"": ""O"", ""occu"": 1}], ""abc"": [0.5, 0.5, -0.0], ""properties"": {""magmom"": 0.0}, ""label"": ""O"", ""xyz"": [2.214931065, 2.214931065, 0.0]}, {""species"": [{""element"": ""O"", ""occu"": 1}], ""abc"": [0.5, -0.0, 0.5], ""properties"": {""magmom"": 0.0}, ""label"": ""O"", ""xyz"": [2.214931065, 0.0, 2.214931065]}, {""species"": [{""element"": ""O"", ""occu"": 1}], ""abc"": [-0.0, 0.5, 0.5], ""properties"": {""magmom"": 0.0}, ""label"": ""O"", ""xyz"": [0.0, 2.214931065, 2.214931065]}]}",CsPaO3,221,2.8683,0.0,0.0062047449063535,0.0101922577204111,0.0041749155931892
mp-570935,"{""@module"": ""pymatgen.core.structure"", ""@class"": ""Structure"", ""charge"": 0, ""lattice"": {""matrix"": [[4.54406925, 1e-08, 0.0], [-2.27203311, 3.9352804, -0.0], [0.0, 0.0, 7.29169756]], ""pbc"": [true, true, true], ""a"": 4.54406925, ""b"": 4.544069352415347, ""c"": 7.29169756, ""alpha"": 90.0, ""beta"": 90.0, ""gamma"": 119.99997707068194, ""volume"": 130.39149697099566}, ""properties"": {}, ""sites"": [{""species"": [{""element"": ""Li"", ""occu"": 1}], ""abc"": [0.333333, 0.666667, 0.9968416600000001], ""properties"": {""magmom"": -0.0}, ""label"": ""Li"", ""xyz"": [-1.262034120319555e-06, 2.62352158176013, 7.26866789992835]}, {""species"": [{""element"": ""Li"", ""occu"": 1}], ""abc"": [0.666667, 0.333333, 0.49684166], ""properties"": {""magmom"": -0.0}, ""label"": ""Li"", ""xyz"": [2.27203740203412, 1.31175882823987, 3.6228191199283497]}, {""species"": [{""element"": ""I"", ""occu"": 1}], ""abc"": [0.333333, 0.666667, 0.37815834], ""properties"": {""magmom"": 0.0}, ""label"": ""I"", ""xyz"": [-1.262034120319555e-06, 2.62352158176013, 2.75741624507165]}, {""species"": [{""element"": ""I"", ""occu"": 1}], ""abc"": [0.666667, 0.333333, 0.87815834], ""properties"": {""magmom"": 0.0}, ""label"": ""I"", ""xyz"": [2.27203740203412, 1.31175882823987, 6.403265025071651]}]}",LiI,186,4.3853,0.0,0.0031876735006005,0.0047734199499054,0.0022531637255378
mp-3216,"{""@module"": ""pymatgen.core.structure"", ""@class"": ""Structure"", ""charge"": 0, ""lattice"": {""matrix"": [[3.27830705, 0.0, -0.0], [-1.63915302, 2.83909614, 0.0], [-0.0, 0.0, 5.43381109]], ""pbc"": [true, true, true], ""a"": 3.27830705, ""b"": 3.278305891026342, ""c"": 5.43381109, ""alpha"": 90.0, ""beta"": 90.0, ""gamma"": 120.00000150321816, ""volume"": 50.574810329420224}, ""properties"": {}, ""sites"": [{""species"": [{""element"": ""Li"", ""occu"": 1}], ""abc"": [0.666667, 0.333333, 0.38357328], ""properties"": {""magmom"": -0.0}, ""label"": ""Li"", ""xyz"": [1.6391553324866903, 0.94636443363462, 2.0842647426916754]}, {""species"": [{""element"": ""Li"", ""occu"": 1}], ""abc"": [0.333333, 0.666667, 0.61642672], ""properties"": {""magmom"": -0.0}, ""label"": ""Li"", ""xyz"": [-1.3024866900579468e-06, 1.8927317063653801, 3.3495463473083245]}, {""species"": [{""element"": ""Zr"", ""occu"": 1}], ""abc"": [-0.0, -0.0, -0.0], ""properties"": {""magmom"": 0.0}, ""label"": ""Zr"", ""xyz"": [0.0, 0.0, 0.0]}, {""species"": [{""element"": ""N"", ""occu"": 1}], ""abc"": [0.666667, 0.333333, 0.77689523], ""properties"": {""magmom"": -0.0}, ""label"": ""N"", ""xyz"": [1.6391553324866903, 0.94636443363462, 4.221501916542101]}, {""species"": [{""element"": ""N"", ""occu"": 1}], ""abc"": [0.333333, 0.666667, 0.22310477], ""properties"": {""magmom"": -0.0}, ""label"": ""N"", ""xyz"": [-1.3024866900579468e-06, 1.8927317063653801, 1.2123091734578992]}]}",Li2ZrN2,164,1.6052999999999995,0.0,0.0218365438711502,0.0431879399149785,0.0128686581681692
mp-567636,"{""@module"": ""pymatgen.core.structure"", ""@class"": ""Structure"", ""charge"": 0, ""lattice"": {""matrix"": [[3.52349357, -0.0, 2.03429014], [1.17449685, 3.32198134, 2.03429014], [0.0, 0.0, 4.06857926]], ""pbc"": [true, true, true], ""a"": 4.068580011691126, ""b"": 4.068579512270755, ""c"": 4.06857926, ""alpha"": 59.99999375794925, ""beta"": 59.999997818505186, ""gamma"": 60.00000866149918, ""volume"": 47.62263842384987}, ""properties"": {}, ""sites"": [{""species"": [{""element"": ""V"", ""occu"": 1}], ""abc"": [0.0, -0.0, -0.0], ""properties"": {""magmom"": -0.0}, ""label"": ""V"", ""xyz"": [0.0, 0.0, 0.0]}, {""species"": [{""element"": ""Fe"", ""occu"": 1}], ""abc"": [0.25, 0.25, 0.25], ""properties"": {""magmom"": 0.0}, ""label"": ""Fe"", ""xyz"": [1.174497605, 0.830495335, 2.0342898849999997]}, {""species"": [{""element"": ""Sb"", ""occu"": 1}], ""abc"": [0.5, 0.5, 0.5], ""properties"": {""magmom"": 0.0}, ""label"": ""Sb"", ""xyz"": [2.34899521, 1.66099067, 4.0685797699999995]}]}",VFeSb,216,0.3334999999999999,0.0,2.389975769659741,3.527968506427694,0.3760358022368472