id,structure_json,formula,spacegroup,bandgap,energy_above_hull,k_1064,k_755,k_1500
mp-7437,"{""@module"": ""pymatgen.core.structure"", ""@class"": ""Structure"", ""charge"": 0, ""lattice"": {""matrix"": [[4.06375843, -0.0, 0.0], [-2.03187972, 3.51931751, 0.0], [-0.0, -0.0, 10.1455352]], ""pbc"": [true, true, true], ""a"": 4.06375843, ""b"": 4.063758227643455, ""c"": 10.1455352, ""alpha"": 90.0, ""beta"": 90.0, ""gamma"": 120.00000986880407, ""volume"": 145.09795638635967}, ""properties"": {}, ""sites"": [{""species"": [{""element"": ""K"", ""occu"": 1}], ""abc"": [0.0, 0.0, 0.5], ""properties"": {""magmom"": 0.0}, ""label"": ""K"", ""xyz"": [0.0, 0.0, 5.0727676]}, {""species"": [{""element"": ""K"", ""occu"": 1}], ""abc"": [0.0, 0.0, -0.0], ""properties"": {""magmom"": 0.0}, ""label"": ""K"", ""xyz"": [0.0, 0.0, 0.0]}, {""species"": [{""element"": ""Zn"", ""occu"": 1}], ""abc"": [0.333333, 0.666667, 0.75], ""properties"": {""magmom"": -0.0}, ""label"": ""Zn"", ""xyz"": [-2.3685460499578426e-06, 2.3462128464391703, 7.6091514]}, {""species"": [{""element"": ""Zn"", ""occu"": 1}], ""abc"": [0.666667, 0.333333, 0.25], ""properties"": {""magmom"": -0.0}, ""label"": ""Zn"", ""xyz"": [2.0318810785460504, 1.17310466356083, 2.5363838]}, {""species"": [{""element"": ""P"", ""occu"": 1}], ""abc"": [0.666667, 0.333333, 0.75], ""properties"": {""magmom"": 0.0}, ""label"": ""P"", ""xyz"": [2.0318810785460504, 1.17310466356083, 7.6091514]}, {""species"": [{""element"": ""P"", ""occu"": 1}], ""abc"": [0.333333, 0.666667, 0.25], ""properties"": {""magmom"": 0.0}, ""label"": ""P"", ""xyz"": [-2.3685460499578426e-06, 2.3462128464391703, 2.5363838]}]}",KZnP,194,0.8400000000000001,0.0,0.326959533581053,0.4916883745372241,0.2607039404103249
mp-1022,"{""@module"": ""pymatgen.core.structure"", ""@class"": ""Structure"", ""charge"": 0, ""lattice"": {""matrix"": [[4.54005525, -1e-08, 2.621202229999999], [1.5133504, 4.28040534, 2.621202229999999], [0.0, 0.0, 5.24240345]], ""pbc"": [true, true, true], ""a"": 5.242404296084911, ""b"": 5.24240407050407, ""c"": 5.24240345, ""alpha"": 59.999997542268474, ""beta"": 59.999998965690715, ""gamma"": 60.00001274462767, ""volume"": 101.87707708492104}, ""properties"": {}, ""sites"": [{""species"": [{""element"": ""K"", ""occu"": 1}], ""abc"": [0.75, 0.75, 0.75], ""properties"": {""magmom"": -0.0}, ""label"": ""K"", ""xyz"": [4.5400542375, 3.2103039974999996, 7.863605932499999]}, {""species"": [{""element"": ""K"", ""occu"": 1}], ""abc"": [0.25, 0.25, 0.25], ""properties"": {""magmom"": -0.0}, ""label"": ""K"", ""xyz"": [1.5133514125, 1.0701013325, 2.6212019774999993]}, {""species"": [{""element"": ""S"", ""occu"": 1}], ""abc"": [-0.0, 0.0, -0.0], ""properties"": {""magmom"": 0.0}, ""label"": ""S"", ""xyz"": [0.0, 0.0, 0.0]}]}",K2S,225,2.3158,0.0,0.0067768647464491,0.0118165832405023,0.0044554216830095
mp-37153,"{""@module"": ""pymatgen.core.structure"", ""@class"": ""Structure"", ""charge"": 0, ""lattice"": {""matrix"": [[5.87719323, 0.0, 0.0], [2.938596109999999, 5.08979966, -0.0], [2.938596109999999, 1.69660022, 4.79870839]], ""pbc"": [true, true, true], ""a"": 5.87719323, ""b"": 5.877193860733474, ""c"": 5.8771933451663445, ""alpha"": 60.00000000509217, ""beta"": 60.000006332989194, ""gamma"": 60.00000923485345, ""volume"": 143.5472964175908}, ""properties"": {}, ""sites"": [{""species"": [{""element"": ""Ag"", ""occu"": 1}], ""abc"": [0.5, 0.5, 0.5], ""properties"": {""magmom"": 0.0}, ""label"": ""Ag"", ""xyz"": [5.877192724999999, 3.3931999399999997, 2.399354195]}, {""species"": [{""element"": ""As"", ""occu"": 1}], ""abc"": [-0.0, -0.0, -0.0], ""properties"": {""magmom"": 0.0}, ""label"": ""As"", ""xyz"": [0.0, 0.0, 0.0]}, {""species"": [{""element"": ""F"", ""occu"": 1}], ""abc"": [0.21035162000000002, 0.78964838, 0.21035162000000002], ""properties"": {""magmom"": -0.0}, ""label"": ""F"", ""xyz"": [4.174873226983531, 4.376034660812907, 1.0094160837440918]}, {""species"": [{""element"": ""F"", ""occu"": 1}], ""abc"": [0.21035162000000002, 0.21035162000000002, 0.78964838], ""properties"": {""magmom"": -0.0}, ""label"": ""F"", ""xyz"": [4.174873226983532, 2.410365219187093, 3.7892923062559083]}, {""species"": [{""element"": ""F"", ""occu"": 1}], ""abc"": [0.78964838, 0.21035162000000002, 0.21035162000000002], ""properties"": {""magmom"": -0.0}, ""label"": ""F"", ""xyz"": [5.877193017544863, 1.4275302087258057, 1.0094160837440918]}, {""species"": [{""element"": ""F"", ""occu"": 1}], ""abc"": [0.21035162000000002, 0.78964838, 0.78964838], ""properties"": {""magmom"": -0.0}, ""label"": ""F"", ""xyz"": [5.877192432455135, 5.358869671274195, 3.7892923062559083]}, {""species"": [{""element"": ""F"", ""occu"": 1}], ""abc"": [0.78964838, 0.78964838, 0.21035162000000002], ""properties"": {""magmom"": -0.0}, ""label"": ""F"", ""xyz"": [7.579512223016466, 4.376034660812907, 1.0094160837440918]}, {""species"": [{""element"": ""F"", ""occu"": 1}], ""abc"": [0.78964838, 0.21035162000000002, 0.78964838], ""properties"": {""magmom"": -0.0}, ""label"": ""F"", ""xyz"": [7.579512223016466, 2.410365219187093, 3.7892923062559083]}]}",AgAsF6,225,1.7434,0.0,0.0049559723910533,0.0121339325779201,0.0030818115833452
mp-1569,"{""@module"": ""pymatgen.core.structure"", ""@class"": ""Structure"", ""charge"": 0, ""lattice"": {""matrix"": [[2.64821085, 0.0, 1.5289447900000002], [0.88273762, 2.49675843, 1.5289447900000002], [-0.0, -0.0, 3.05789259]], ""pbc"": [true, true, true], ""a"": 3.057890265677607, ""b"": 3.057891517763093, ""c"": 3.05789259, ""alpha"": 60.00002096237881, ""beta"": 60.00000741754276, ""gamma"": 60.00000593606153, ""volume"": 20.218610784013585}, ""properties"": {}, ""sites"": [{""species"": [{""element"": ""Be"", ""occu"": 1}], ""abc"": [0.25, 0.25, 0.25], ""properties"": {""magmom"": 0.0}, ""label"": ""Be"", ""xyz"": [0.8827371175, 0.6241896075, 1.5289455425]}, {""species"": [{""element"": ""Be"", ""occu"": 1}], ""abc"": [0.75, 0.75, 0.75], ""properties"": {""magmom"": 0.0}, ""label"": ""Be"", ""xyz"": [2.6482113524999997, 1.8725688225, 4.5868366275]}, {""species"": [{""element"": ""C"", ""occu"": 1}], ""abc"": [-0.0, 0.0, -0.0], ""properties"": {""magmom"": -0.0}, ""label"": ""C"", ""xyz"": [0.0, 0.0, 0.0]}]}",Be2C,225,1.1646,0.0,0.0050888772898113,0.0076136738603624,0.0037282284710723
mp-4887,"{""@module"": ""pymatgen.core.structure"", ""@class"": ""Structure"", ""charge"": 0, ""lattice"": {""matrix"": [[3.6803613, -1e-08, -0.0], [-1.84018167, 3.18728547, 0.0], [-0.0, -0.0, 12.677597]], ""pbc"": [true, true, true], ""a"": 3.6803613, ""b"": 3.6803610211332676, ""c"": 12.677597, ""alpha"": 90.0, ""beta"": 90.0, ""gamma"": 120.00002099806498, ""volume"": 148.71280308184802}, ""properties"": {}, ""sites"": [{""species"": [{""element"": ""Ba"", ""occu"": 1}], ""abc"": [0.333333, 0.666667, 0.75], ""properties"": {""magmom"": -0.0}, ""label"": ""Ba"", ""xyz"": [-2.5201809901176375e-06, 2.12485803909516, 9.50819775]}, {""species"": [{""element"": ""Ba"", ""occu"": 1}], ""abc"": [0.666667, 0.333333, 0.25], ""properties"": {""magmom"": -0.0}, ""label"": ""Ba"", ""xyz"": [1.8401821501809903, 1.0624274209048399, 3.16939925]}, {""species"": [{""element"": ""Ce"", ""occu"": 1}], ""abc"": [-0.0, -0.0, -0.0], ""properties"": {""magmom"": 0.0}, ""label"": ""Ce"", ""xyz"": [0.0, 0.0, 0.0]}, {""species"": [{""element"": ""Ce"", ""occu"": 1}], ""abc"": [-0.0, 0.0, 0.5], ""properties"": {""magmom"": 0.0}, ""label"": ""Ce"", ""xyz"": [0.0, 0.0, 6.3387985]}, {""species"": [{""element"": ""N"", ""occu"": 1}], ""abc"": [0.333333, 0.666667, 0.4040513], ""properties"": {""magmom"": 0.0}, ""label"": ""N"", ""xyz"": [-2.5201809901176375e-06, 2.12485803909516, 5.1223995487261]}, {""species"": [{""element"": ""N"", ""occu"": 1}], ""abc"": [0.666667, 0.333333, 0.9040513], ""properties"": {""magmom"": 0.0}, ""label"": ""N"", ""xyz"": [1.8401821501809903, 1.0624274209048399, 11.4611980487261]}, {""species"": [{""element"": ""N"", ""occu"": 1}], ""abc"": [0.333333, 0.666667, 0.0959487], ""properties"": {""magmom"": 0.0}, ""label"": ""N"", ""xyz"": [-2.5201809901176375e-06, 2.12485803909516, 1.2163989512739]}, {""species"": [{""element"": ""N"", ""occu"": 1}], ""abc"": [0.666667, 0.333333, 0.5959487], ""properties"": {""magmom"": 0.0}, ""label"": ""N"", ""xyz"": [1.8401821501809903, 1.0624274209048399, 7.555197451273901]}]}",BaCeN2,194,0.6928000000000001,0.0,0.3254999995177809,1.0271287827523017,0.0817828466629551
mp-7921,"{""@module"": ""pymatgen.core.structure"", ""@class"": ""Structure"", ""charge"": 0, ""lattice"": {""matrix"": [[4.38715341, 0.01610269, 3.0329108], [1.60259515, 4.08598553, 3.03023615], [0.02532148, 0.020830150000000002, 5.33337067]], ""pbc"": [true, true, true], ""a"": 5.333471876766249, ""b"": 5.333471673398081, ""c"": 5.333471456388856, ""alpha"": 55.07089443734636, ""beta"": 55.0709014511988, ""gamma"": 55.07090323363037, ""volume"": 94.97931247981346}, ""properties"": {}, ""sites"": [{""species"": [{""element"": ""Mg"", ""occu"": 1}], ""abc"": [0.5, 0.5, 0.5], ""properties"": {""magmom"": 0.0}, ""label"": ""Mg"", ""xyz"": [3.0075350199999997, 2.0614591850000004, 5.6982588100000005]}, {""species"": [{""element"": ""Pd"", ""occu"": 1}], ""abc"": [0.0, -0.0, 0.0], ""properties"": {""magmom"": 0.0}, ""label"": ""Pd"", ""xyz"": [0.0, 0.0, 0.0]}, {""species"": [{""element"": ""F"", ""occu"": 1}], ""abc"": [0.38905901, 0.10032975, 0.75740819], ""properties"": {""magmom"": -0.0}, ""label"": ""F"", ""xyz"": [1.8868282294983576, 0.4319877295671829, 5.523542734400558]}, {""species"": [{""element"": ""F"", ""occu"": 1}], ""abc"": [0.10032975, 0.75740819, 0.38905901], ""properties"": {""magmom"": -0.0}, ""label"": ""F"", ""xyz"": [1.6638322466417608, 3.10447864104267, 4.674412772813605]}, {""species"": [{""element"": ""F"", ""occu"": 1}], ""abc"": [0.24259181000000002, 0.61094099, 0.89967025], ""properties"": {""magmom"": -0.0}, ""label"": ""F"", ""xyz"": [2.0661595362317406, 2.5189426917948814, 7.385329717976903]}, {""species"": [{""element"": ""F"", ""occu"": 1}], ""abc"": [0.89967025, 0.24259181000000002, 0.61094099], ""properties"": {""magmom"": -0.0}, ""label"": ""F"", ""xyz"": [4.351237793358239, 1.0184397289573304, 6.722104847186395]}, {""species"": [{""element"": ""F"", ""occu"": 1}], ""abc"": [0.61094099, 0.89967025, 0.24259181000000002], ""properties"": {""magmom"": -0.0}, ""label"": ""F"", ""xyz"": [4.128241810501643, 3.6909306404328173, 5.872974885599442]}, {""species"": [{""element"": ""F"", ""occu"": 1}], ""abc"": [0.75740819, 0.38905901, 0.10032975], ""properties"": {""magmom"": -0.0}, ""label"": ""F"", ""xyz"": [3.9489105037682597, 1.603975678205119, 4.011187902023096]}]}",MgPdF6,148,1.7706000000000002,0.0,0.0129859434703164,0.0370714486720978,0.007492488568495
mp-1070099,"{""@module"": ""pymatgen.core.structure"", ""@class"": ""Structure"", ""charge"": 0, ""lattice"": {""matrix"": [[8.41049144, -1.99467313, 0.00106619], [8.41049144, 1.99467313, 0.00106619], [7.93699079, 0.0, 3.423340999999999]], ""pbc"": [true, true, true], ""a"": 8.643789001046843, ""b"": 8.643789001046843, ""c"": 8.643788891616095, ""alpha"": 26.68408614532415, ""beta"": 26.68408614532415, ""gamma"": 26.68408165798735, ""volume"": 114.82741923064724}, ""properties"": {}, ""sites"": [{""species"": [{""element"": ""Ca"", ""occu"": 1}], ""abc"": [0.0, 0.0, 0.0], ""properties"": {""magmom"": 0.0}, ""label"": ""Ca"", ""xyz"": [0.0, 0.0, 0.0]}, {""species"": [{""element"": ""Ga"", ""occu"": 1}], ""abc"": [0.54868983, 0.54868983, 0.54868983], ""properties"": {""magmom"": -0.0}, ""label"": ""Ga"", ""xyz"": [13.584448364136776, 0.0, 1.8795224065417249]}, {""species"": [{""element"": ""Ga"", ""occu"": 1}], ""abc"": [0.45131017, 0.45131017, 0.45131017], ""properties"": {""magmom"": -0.0}, ""label"": ""Ga"", ""xyz"": [11.173525305863224, 0.0, 1.5459509734582741]}, {""species"": [{""element"": ""As"", ""occu"": 1}], ""abc"": [0.74371968, 0.74371968, 0.74371968], ""properties"": {""magmom"": -0.0}, ""label"": ""As"", ""xyz"": [18.412992255300825, 0.0, 2.5475919660221176]}, {""species"": [{""element"": ""As"", ""occu"": 1}], ""abc"": [0.25628032, 0.25628032, 0.25628032], ""properties"": {""magmom"": -0.0}, ""label"": ""As"", ""xyz"": [6.344981414699174, 0.0, 0.8778814139778813]}]}",Ca(GaAs)2,166,0.2667999999999999,0.0,0.2921411282789731,0.8470097600333528,0.447702716487545
mp-1315,"{""@module"": ""pymatgen.core.structure"", ""@class"": ""Structure"", ""charge"": 0, ""lattice"": {""matrix"": [[3.18972265, 0.0, 1.84158752], [1.06324088, 3.00729943, 1.84158752], [0.0, 0.0, 3.68317402]], ""pbc"": [true, true, true], ""a"": 3.683174605926628, ""b"": 3.683174666561613, ""c"": 3.68317402, ""alpha"": 59.999996646034006, ""beta"": 59.999996101452325, ""gamma"": 59.999997997403355, ""volume"": 35.33066670617066}, ""properties"": {}, ""sites"": [{""species"": [{""element"": ""Mg"", ""occu"": 1}], ""abc"": [0.0, -0.0, 0.0], ""properties"": {""magmom"": -0.0}, ""label"": ""Mg"", ""xyz"": [0.0, 0.0, 0.0]}, {""species"": [{""element"": ""S"", ""occu"": 1}], ""abc"": [0.5, 0.5, 0.5], ""properties"": {""magmom"": 0.0}, ""label"": ""S"", ""xyz"": [2.1264817650000003, 1.503649715, 3.68317453]}]}",MgS,225,2.7683,0.0,0.0058912263344528,0.0091065715388069,0.004230937893678
mp-1217996,"{""@module"": ""pymatgen.core.structure"", ""@class"": ""Structure"", ""charge"": 0, ""lattice"": {""matrix"": [[4.027809, -3.985749, 0.0], [4.027809, 3.985749, 0.0], [0.08368, 0.0, 5.665901]], ""pbc"": [true, true, true], ""a"": 5.666519251840763, ""b"": 5.666519251840763, ""c"": 5.666518903542191, ""alpha"": 89.39856536124286, ""beta"": 89.39856536124286, ""gamma"": 89.39855970148142, ""volume"": 181.91888742427204}, ""properties"": {}, ""sites"": [{""species"": [{""element"": ""Ta"", ""occu"": 1}], ""abc"": [0.99953, 0.99953, 0.99953], ""properties"": {""magmom"": 0.0}, ""label"": ""Ta"", ""xyz"": [8.135472529940001, 0.0, 5.66323802653]}, {""species"": [{""element"": ""Cu"", ""occu"": 1}], ""abc"": [0.0063, 0.497648, 0.0063], ""properties"": {""magmom"": 0.0}, ""label"": ""Cu"", ""xyz"": [2.0303334739320005, 1.9583897996519999, 0.0356951763]}, {""species"": [{""element"": ""Cu"", ""occu"": 1}], ""abc"": [0.0063, 0.0063, 0.497648], ""properties"": {""magmom"": 0.0}, ""label"": ""Cu"", ""xyz"": [0.09239357804000001, 0.0, 2.819624300848]}, {""species"": [{""element"": ""Cu"", ""occu"": 1}], ""abc"": [0.497648, 0.0063, 0.0063], ""properties"": {""magmom"": 0.0}, ""label"": ""Cu"", ""xyz"": [2.0303334739320005, -1.9583897996519999, 0.0356951763]}, {""species"": [{""element"": ""Se"", ""occu"": 1}], ""abc"": [0.25581000000000004, 0.750344, 0.750344], ""properties"": {""magmom"": -0.0}, ""label"": ""Se"", ""xyz"": [4.115384922506, 1.971088395966, 4.251374819944]}, {""species"": [{""element"": ""Se"", ""occu"": 1}], ""abc"": [0.750344, 0.750344, 0.25581000000000004], ""properties"": {""magmom"": -0.0}, ""label"": ""Se"", ""xyz"": [6.065890813392, 0.0, 1.4493941348100001]}, {""species"": [{""element"": ""Se"", ""occu"": 1}], ""abc"": [0.750344, 0.25581000000000004, 0.750344], ""properties"": {""magmom"": -0.0}, ""label"": ""Se"", ""xyz"": [4.115384922506, -1.971088395966, 4.251374819944]}, {""species"": [{""element"": ""S"", ""occu"": 1}], ""abc"": [0.233723, 0.233723, 0.233723], ""properties"": {""magmom"": -0.0}, ""label"": ""S"", ""xyz"": [1.902341146454, 0.0, 1.324251379423]}]}",TaCu3Se3S,160,1.6223999999999998,0.0,0.0243422305980445,0.0509880194934355,0.0157058513067296
mp-9499,"{""@module"": ""pymatgen.core.structure"", ""@class"": ""Structure"", ""charge"": 0, ""lattice"": {""matrix"": [[1.927886, -3.339196, 0.0], [1.927886, 3.339196, 0.0], [0.0, 0.0, 8.308202]], ""pbc"": [true, true, true], ""a"": 3.8557715642153907, ""b"": 3.8557715642153907, ""c"": 8.308202, ""alpha"": 90.0, ""beta"": 90.0, ""gamma"": 119.99999252256578, ""volume"": 106.96958325984883}, ""properties"": {}, ""sites"": [{""species"": [{""element"": ""Sm"", ""occu"": 1}], ""abc"": [0.666667, 0.333333, 0.82088], ""properties"": {""magmom"": -0.0}, ""label"": ""Sm"", ""xyz"": [1.927886, -1.113067559464, 6.82003685776]}, {""species"": [{""element"": ""Sm"", ""occu"": 1}], ""abc"": [0.333333, 0.666667, 0.17912], ""properties"": {""magmom"": -0.0}, ""label"": ""Sm"", ""xyz"": [1.927886, 1.113067559464, 1.48816514224]}, {""species"": [{""element"": ""C"", ""occu"": 1}], ""abc"": [0.0, 0.0, 0.5], ""properties"": {""magmom"": 0.0}, ""label"": ""C"", ""xyz"": [0.0, 0.0, 4.154101]}, {""species"": [{""element"": ""N"", ""occu"": 1}], ""abc"": [0.0, 0.0, 0.351107], ""properties"": {""magmom"": 0.0}, ""label"": ""N"", ""xyz"": [0.0, 0.0, 2.9170678796139997]}, {""species"": [{""element"": ""N"", ""occu"": 1}], ""abc"": [0.0, 0.0, 0.648892999999999], ""properties"": {""magmom"": 0.0}, ""label"": ""N"", ""xyz"": [0.0, 0.0, 5.391134120385992]}, {""species"": [{""element"": ""O"", ""occu"": 1}], ""abc"": [0.666667, 0.333333, 0.103235], ""properties"": {""magmom"": 0.0}, ""label"": ""O"", ""xyz"": [1.927886, -1.113067559464, 0.8576972334699999]}, {""species"": [{""element"": ""O"", ""occu"": 1}], ""abc"": [0.333333, 0.666667, 0.896764999999999], ""properties"": {""magmom"": 0.0}, ""label"": ""O"", ""xyz"": [1.927886, 1.113067559464, 7.450504766529992]}]}",Sm2C(NO)2,164,3.8857,0.0,0.003571295903625,0.0054608687544713,0.0024840616505639
mp-13971,"{""@module"": ""pymatgen.core.structure"", ""@class"": ""Structure"", ""charge"": 0, ""lattice"": {""matrix"": [[4.00093465, -0.0, 0.0], [-2.00046732, 3.46491182, 0.0], [0.0, 0.0, 7.03823685]], ""pbc"": [true, true, true], ""a"": 4.00093465, ""b"": 4.000935317992993, ""c"": 7.03823685, ""alpha"": 90.0, ""beta"": 90.0, ""gamma"": 119.99999439435402, ""volume"": 97.57027340219378}, ""properties"": {}, ""sites"": [{""species"": [{""element"": ""Nd"", ""occu"": 1}], ""abc"": [0.666667, 0.333333, 0.71152331], ""properties"": {""magmom"": 0.0}, ""label"": ""Nd"", ""xyz"": [2.00046932713399, 1.15496945169606, 5.007869580075973]}, {""species"": [{""element"": ""Nd"", ""occu"": 1}], ""abc"": [0.333333, 0.666667, 0.28847669], ""properties"": {""magmom"": 0.0}, ""label"": ""Nd"", ""xyz"": [-1.9971339901836416e-06, 2.30994236830394, 2.0303672699240263]}, {""species"": [{""element"": ""Se"", ""occu"": 1}], ""abc"": [-0.0, 0.0, -0.0], ""properties"": {""magmom"": 0.0}, ""label"": ""Se"", ""xyz"": [0.0, 0.0, 0.0]}, {""species"": [{""element"": ""O"", ""occu"": 1}], ""abc"": [0.666667, 0.333333, 0.37438995], ""properties"": {""magmom"": -0.0}, ""label"": ""O"", ""xyz"": [2.00046932713399, 1.15496945169606, 2.6350451423596577]}, {""species"": [{""element"": ""O"", ""occu"": 1}], ""abc"": [0.333333, 0.666667, 0.62561005], ""properties"": {""magmom"": -0.0}, ""label"": ""O"", ""xyz"": [-1.9971339901836416e-06, 2.30994236830394, 4.403191707640342]}]}",Nd2SeO2,164,2.1442,0.0,0.0069262473905447,0.0110848213835939,0.0048674604738252