id,structure_json,formula,spacegroup,bandgap,energy_above_hull,k_1064,k_755,k_1500
mp-1094088,"{""@module"": ""pymatgen.core.structure"", ""@class"": ""Structure"", ""charge"": 0, ""lattice"": {""matrix"": [[0.0, 2.971316449999999, 2.971316449999999], [2.971316449999999, 0.0, 2.971316449999999], [2.971316449999999, 2.971316449999999, 0.0]], ""pbc"": [true, true, true], ""a"": 4.202076021692277, ""b"": 4.202076021692277, ""c"": 4.202076021692277, ""alpha"": 60.00000000000001, ""beta"": 60.00000000000001, ""gamma"": 60.00000000000001, ""volume"": 52.465850530176404}, ""properties"": {}, ""sites"": [{""species"": [{""element"": ""Nb"", ""occu"": 1}], ""abc"": [0.5, 0.5, 0.5], ""properties"": {""magmom"": -0.0}, ""label"": ""Nb"", ""xyz"": [2.971316449999999, 2.971316449999999, 2.971316449999999]}, {""species"": [{""element"": ""Co"", ""occu"": 1}], ""abc"": [0.75, 0.75, 0.75], ""properties"": {""magmom"": 0.0}, ""label"": ""Co"", ""xyz"": [4.456974674999998, 4.456974674999998, 4.456974674999998]}, {""species"": [{""element"": ""Sn"", ""occu"": 1}], ""abc"": [-0.0, 0.0, 0.0], ""properties"": {""magmom"": -0.0}, ""label"": ""Sn"", ""xyz"": [0.0, 0.0, 0.0]}]}",NbCoSn,216,0.9699,0.0,0.270344557242177,1.535102216244767,0.1094536334800395
mp-16035,"{""@module"": ""pymatgen.core.structure"", ""@class"": ""Structure"", ""charge"": 0, ""lattice"": {""matrix"": [[3.79841689, -0.0, -1.14501216], [-0.34515786, 3.78270398, -1.14501216], [0.00743422, 0.008143580000000001, 6.89752816]], ""pbc"": [true, true, true], ""a"": 3.9672438438776534, ""b"": 3.9672454165548525, ""c"": 6.897536973696858, ""alpha"": 106.7133741147737, ""beta"": 106.71338204140247, ""gamma"": 90.00000217909349, ""volume"": 99.17649819929922}, ""properties"": {}, ""sites"": [{""species"": [{""element"": ""Gd"", ""occu"": 1}], ""abc"": [0.66095973, 0.66095973, 0.32192145], ""properties"": {""magmom"": 6.88}, ""label"": ""Gd"", ""xyz"": [2.284858390970881, 2.5028365943725164, 0.7068484104423984]}, {""species"": [{""element"": ""Gd"", ""occu"": 1}], ""abc"": [0.33904027000000003, 0.33904027000000003, 0.6780785500000001], ""properties"": {""magmom"": 6.88}, ""label"": ""Gd"", ""xyz"": [1.1758348590291192, 1.2880109656274839, 3.9006554295576024]}, {""species"": [{""element"": ""Te"", ""occu"": 1}], ""abc"": [-0.0, -0.0, 0.0], ""properties"": {""magmom"": -0.027}, ""label"": ""Te"", ""xyz"": [0.0, 0.0, 0.0]}, {""species"": [{""element"": ""O"", ""occu"": 1}], ""abc"": [0.25, 0.75, 0.5], ""properties"": {""magmom"": -0.024}, ""label"": ""O"", ""xyz"": [0.6944529374999999, 2.8410997749999995, 2.30375192]}, {""species"": [{""element"": ""O"", ""occu"": 1}], ""abc"": [0.75, 0.25, 0.5], ""properties"": {""magmom"": -0.024}, ""label"": ""O"", ""xyz"": [2.7662403125, 0.949747785, 2.30375192]}]}",Gd2TeO2,139,1.0809000000000006,0.0,0.0970421561455906,0.3715025260972814,0.0278016585102401
mp-755311,"{""@module"": ""pymatgen.core.structure"", ""@class"": ""Structure"", ""charge"": 0, ""lattice"": {""matrix"": [[3.29402805, 0.0, -0.0], [-1.64701352, 0.95090368, 5.45060314], [1.64701352, -2.85271105, -0.0]], ""pbc"": [true, true, true], ""a"": 3.29402805, ""b"": 5.77286288885144, ""c"": 3.29402699895658, ""alpha"": 106.576944728579, ""beta"": 59.9999995878281, ""gamma"": 106.57694482930945, ""volume"": 51.218828336413424}, ""properties"": {}, ""sites"": [{""species"": [{""element"": ""Na"", ""occu"": 1}], ""abc"": [-0.0, -0.0, -0.0], ""properties"": {""magmom"": -0.0}, ""label"": ""Na"", ""xyz"": [0.0, 0.0, 0.0]}, {""species"": [{""element"": ""Lu"", ""occu"": 1}], ""abc"": [0.5, 0.5, 0.5], ""properties"": {""magmom"": -0.0}, ""label"": ""Lu"", ""xyz"": [1.647014025, -0.9509036849999999, 2.72530157]}, {""species"": [{""element"": ""O"", ""occu"": 1}], ""abc"": [0.23627967, 0.70883902, 0.23627967], ""properties"": {""magmom"": 0.0}, ""label"": ""O"", ""xyz"": [2.2217233153210003e-07, 7.146240155186945e-09, 3.8636001881665227]}, {""species"": [{""element"": ""O"", ""occu"": 1}], ""abc"": [0.7637203300000001, 0.29116098, 0.7637203300000001], ""properties"": {""magmom"": 0.0}, ""label"": ""O"", ""xyz"": [3.2940278278276685, -1.90180737714624, 1.5870029518334774]}]}",NaLuO2,166,4.1296,0.0,0.0025257717262945,0.0036928270114349,0.0016935271333829
mp-23040,"{""@module"": ""pymatgen.core.structure"", ""@class"": ""Structure"", ""charge"": 0, ""lattice"": {""matrix"": [[4.1468186, 0.00163696, 6.63982006], [1.90431365, 3.68370679, 6.63982006], [0.00268702, 0.00163697, 7.82836615]], ""pbc"": [true, true, true], ""a"": 7.828366215892203, ""b"": 7.828366152745209, ""c"": 7.828366782299683, ""alpha"": 31.966664965959364, ""beta"": 31.966668853799586, ""gamma"": 31.966668693170504, ""volume"": 119.46901919986469}, ""properties"": {}, ""sites"": [{""species"": [{""element"": ""Ca"", ""occu"": 1}], ""abc"": [0.77011847, 0.77011847, 0.77011847], ""properties"": {""magmom"": -0.0}, ""label"": ""Ca"", ""xyz"": [4.662158033868916, 2.839411951005898, 16.25566549340281]}, {""species"": [{""element"": ""Ca"", ""occu"": 1}], ""abc"": [0.22988153, 0.22988153, 0.22988153], ""properties"": {""magmom"": -0.0}, ""label"": ""Ca"", ""xyz"": [1.391661236131083, 0.8475687689941016, 4.8523407765971935]}, {""species"": [{""element"": ""P"", ""occu"": 1}], ""abc"": [0.5, 0.5, 0.5], ""properties"": {""magmom"": 0.0}, ""label"": ""P"", ""xyz"": [3.0269096349999995, 1.8434903599999999, 10.554003135]}, {""species"": [{""element"": ""I"", ""occu"": 1}], ""abc"": [0.0, -0.0, 0.0], ""properties"": {""magmom"": 0.0}, ""label"": ""I"", ""xyz"": [0.0, 0.0, 0.0]}]}",Ca2PI,166,1.7249,0.0,0.0212676909590129,0.0488635169218208,0.0130472290951618
mp-7950,"{""@module"": ""pymatgen.core.structure"", ""@class"": ""Structure"", ""charge"": 0, ""lattice"": {""matrix"": [[4.03862619, 0.0, -0.0], [-0.0, 4.03862619, 0.0], [-0.0, -0.0, 7.07161869]], ""pbc"": [true, true, true], ""a"": 4.03862619, ""b"": 4.03862619, ""c"": 7.07161869, ""alpha"": 90.0, ""beta"": 90.0, ""gamma"": 90.0, ""volume"": 115.34164726873333}, ""properties"": {}, ""sites"": [{""species"": [{""element"": ""Th"", ""occu"": 1}], ""abc"": [0.25, 0.25, 0.18785708], ""properties"": {""magmom"": -0.0}, ""label"": ""Th"", ""xyz"": [1.0096565475, 1.0096565475, 1.3284536379768253]}, {""species"": [{""element"": ""Th"", ""occu"": 1}], ""abc"": [0.75, 0.75, 0.81214292], ""properties"": {""magmom"": -0.0}, ""label"": ""Th"", ""xyz"": [3.0289696425, 3.0289696425, 5.7431650520231745]}, {""species"": [{""element"": ""Se"", ""occu"": 1}], ""abc"": [0.25, 0.25, 0.63812515], ""properties"": {""magmom"": 0.0}, ""label"": ""Se"", ""xyz"": [1.0096565475, 1.0096565475, 4.512577737299054]}, {""species"": [{""element"": ""Se"", ""occu"": 1}], ""abc"": [0.75, 0.75, 0.36187485], ""properties"": {""magmom"": 0.0}, ""label"": ""Se"", ""xyz"": [3.0289696425, 3.0289696425, 2.5590409527009466]}, {""species"": [{""element"": ""O"", ""occu"": 1}], ""abc"": [0.75, 0.25, 0.0], ""properties"": {""magmom"": 0.0}, ""label"": ""O"", ""xyz"": [3.0289696425, 1.0096565475, 0.0]}, {""species"": [{""element"": ""O"", ""occu"": 1}], ""abc"": [0.25, 0.75, 0.0], ""properties"": {""magmom"": 0.0}, ""label"": ""O"", ""xyz"": [1.0096565475, 3.0289696425, 0.0]}]}",ThSeO,129,0.7675999999999998,0.0,0.0265430864699852,0.0730412300310544,0.013379855429941
mp-1079647,"{""@module"": ""pymatgen.core.structure"", ""@class"": ""Structure"", ""charge"": 0, ""lattice"": {""matrix"": [[4.412943, 0.0, 0.0], [0.0, 4.412943, 0.0], [0.0, 0.0, 9.527038]], ""pbc"": [true, true, true], ""a"": 4.412943, ""b"": 4.412943, ""c"": 9.527038, ""alpha"": 90.0, ""beta"": 90.0, ""gamma"": 90.0, ""volume"": 185.53016604624426}, ""properties"": {}, ""sites"": [{""species"": [{""element"": ""Ba"", ""occu"": 1}], ""abc"": [0.0, 0.5, 0.839596], ""properties"": {""magmom"": -0.0}, ""label"": ""Ba"", ""xyz"": [0.0, 2.2064715, 7.998862996648]}, {""species"": [{""element"": ""Ba"", ""occu"": 1}], ""abc"": [0.5, 0.0, 0.160404], ""properties"": {""magmom"": -0.0}, ""label"": ""Ba"", ""xyz"": [2.2064715, 0.0, 1.5281750033519998]}, {""species"": [{""element"": ""Ag"", ""occu"": 1}], ""abc"": [0.5, 0.5, 0.5], ""properties"": {""magmom"": 0.0}, ""label"": ""Ag"", ""xyz"": [2.2064715, 2.2064715, 4.763519]}, {""species"": [{""element"": ""Ag"", ""occu"": 1}], ""abc"": [0.0, 0.0, 0.5], ""properties"": {""magmom"": 0.0}, ""label"": ""Ag"", ""xyz"": [0.0, 0.0, 4.763519]}, {""species"": [{""element"": ""Se"", ""occu"": 1}], ""abc"": [0.0, 0.5, 0.319206], ""properties"": {""magmom"": 0.0}, ""label"": ""Se"", ""xyz"": [0.0, 2.2064715, 3.041087691828]}, {""species"": [{""element"": ""Se"", ""occu"": 1}], ""abc"": [0.5, 0.0, 0.680794], ""properties"": {""magmom"": 0.0}, ""label"": ""Se"", ""xyz"": [2.2064715, 0.0, 6.485950308172]}, {""species"": [{""element"": ""F"", ""occu"": 1}], ""abc"": [0.5, 0.5, 0.0], ""properties"": {""magmom"": -0.0}, ""label"": ""F"", ""xyz"": [2.2064715, 2.2064715, 0.0]}, {""species"": [{""element"": ""F"", ""occu"": 1}], ""abc"": [0.0, 0.0, 0.0], ""properties"": {""magmom"": -0.0}, ""label"": ""F"", ""xyz"": [0.0, 0.0, 0.0]}]}",BaAgSeF,129,1.2693,0.0,0.0521454526287328,0.1594080066211704,0.0154701795342504
mp-1223799,"{""@module"": ""pymatgen.core.structure"", ""@class"": ""Structure"", ""charge"": 0, ""lattice"": {""matrix"": [[3.78086854, 0.0, 0.0], [0.0, 3.78086854, 0.0], [0.0, 0.0, 5.34025063]], ""pbc"": [true, true, true], ""a"": 3.78086854, ""b"": 3.78086854, ""c"": 5.34025063, ""alpha"": 90.0, ""beta"": 90.0, ""gamma"": 90.0, ""volume"": 76.338706083066}, ""properties"": {}, ""sites"": [{""species"": [{""element"": ""Ho"", ""occu"": 1}], ""abc"": [0.0, -0.0, -0.0], ""properties"": {""magmom"": 0.0}, ""label"": ""Ho"", ""xyz"": [0.0, 0.0, 0.0]}, {""species"": [{""element"": ""Pa"", ""occu"": 1}], ""abc"": [0.5, 0.5, 0.5], ""properties"": {""magmom"": -0.0}, ""label"": ""Pa"", ""xyz"": [1.89043427, 1.89043427, 2.670125315]}, {""species"": [{""element"": ""O"", ""occu"": 1}], ""abc"": [0.5, -0.0, 0.74177832], ""properties"": {""magmom"": 0.0}, ""label"": ""O"", ""xyz"": [1.89043427, 0.0, 3.9612821407003413]}, {""species"": [{""element"": ""O"", ""occu"": 1}], ""abc"": [-0.0, 0.5, 0.25822168], ""properties"": {""magmom"": 0.0}, ""label"": ""O"", ""xyz"": [0.0, 1.89043427, 1.3789684892996583]}, {""species"": [{""element"": ""O"", ""occu"": 1}], ""abc"": [0.5, -0.0, 0.25822168], ""properties"": {""magmom"": 0.0}, ""label"": ""O"", ""xyz"": [1.89043427, 0.0, 1.3789684892996583]}, {""species"": [{""element"": ""O"", ""occu"": 1}], ""abc"": [0.0, 0.5, 0.74177832], ""properties"": {""magmom"": 0.0}, ""label"": ""O"", ""xyz"": [0.0, 1.89043427, 3.9612821407003413]}]}",HoPaO4,123,2.4453000000000005,0.0,0.0066618106362853,0.0104583506377557,0.0043224978265747
mp-20194,"{""@module"": ""pymatgen.core.structure"", ""@class"": ""Structure"", ""charge"": 0, ""lattice"": {""matrix"": [[3.348116, 0.0, 1.933036], [1.116039, 3.156634, 1.933036], [0.0, 0.0, 3.866071]], ""pbc"": [true, true, true], ""a"": 3.86607151081715, ""b"": 3.8660715767782934, ""c"": 3.866071, ""alpha"": 59.9999963787371, ""beta"": 59.99999581434572, ""gamma"": 59.99999283390335, ""volume"": 40.85964149792201}, ""properties"": {}, ""sites"": [{""species"": [{""element"": ""Ce"", ""occu"": 1}], ""abc"": [0.0, 0.0, 0.0], ""properties"": {""magmom"": -0.0}, ""label"": ""Ce"", ""xyz"": [0.0, 0.0, 0.0]}, {""species"": [{""element"": ""O"", ""occu"": 1}], ""abc"": [0.75, 0.75, 0.75], ""properties"": {""magmom"": 0.0}, ""label"": ""O"", ""xyz"": [3.34811625, 2.3674755, 5.7991072500000005]}, {""species"": [{""element"": ""O"", ""occu"": 1}], ""abc"": [0.25, 0.25, 0.25], ""properties"": {""magmom"": 0.0}, ""label"": ""O"", ""xyz"": [1.11603875, 0.7891585, 1.93303575]}]}",CeO2,225,1.902,0.0,0.0340701437291084,0.0890740234101987,0.0198275818607657
mp-27980,"{""@module"": ""pymatgen.core.structure"", ""@class"": ""Structure"", ""charge"": 0, ""lattice"": {""matrix"": [[5.41265302, -2.1039191, -0.0656575], [5.41265302, 2.1039191, -0.0656575], [4.6380455099999995, 0.0, 3.49515793]], ""pbc"": [true, true, true], ""a"": 5.807546745534312, ""b"": 5.807546745534312, ""c"": 5.807546393139967, ""alpha"": 42.479742450287084, ""beta"": 42.479742450287084, ""gamma"": 42.47974539665935, ""volume"": 80.88558889288106}, ""properties"": {}, ""sites"": [{""species"": [{""element"": ""U"", ""occu"": 1}], ""abc"": [-0.0, -0.0, -0.0], ""properties"": {""magmom"": 0.0}, ""label"": ""U"", ""xyz"": [0.0, 0.0, 0.0]}, {""species"": [{""element"": ""O"", ""occu"": 1}], ""abc"": [0.11148785, 0.11148785, 0.11148785], ""properties"": {""magmom"": -0.0}, ""label"": ""O"", ""xyz"": [1.7239758181036673, 0.0, 0.37502761600340045]}, {""species"": [{""element"": ""O"", ""occu"": 1}], ""abc"": [0.8885121500000001, 0.8885121500000001, 0.8885121500000001], ""properties"": {""magmom"": -0.0}, ""label"": ""O"", ""xyz"": [13.739375731896333, 0.0, 2.9888153139965996]}, {""species"": [{""element"": ""F"", ""occu"": 1}], ""abc"": [0.33279781, 0.33279781, 0.33279781], ""properties"": {""magmom"": -0.0}, ""label"": ""F"", ""xyz"": [5.146169531100106, 0.0, 1.1194795602879835]}, {""species"": [{""element"": ""F"", ""occu"": 1}], ""abc"": [0.66720219, 0.66720219, 0.66720219], ""properties"": {""magmom"": -0.0}, ""label"": ""F"", ""xyz"": [10.317182018899894, 0.0, 2.2443633697120164]}]}",U(OF)2,166,2.0768,0.0,0.0029550801601263,0.0048167653959546,0.002049650535476
mp-999119,"{""@module"": ""pymatgen.core.structure"", ""@class"": ""Structure"", ""charge"": 0, ""lattice"": {""matrix"": [[-2.01586889, -3.49158789, 0.0], [-4.03173881, 1e-08, 0.0], [-2.01586889, -1.1638626300000001, -7.49267235]], ""pbc"": [true, true, true], ""a"": 4.031738257286116, ""b"": 4.03173881, ""c"": 7.84591884661286, ""alpha"": 75.11189499401333, ""beta"": 75.11189437111466, ""gamma"": 60.00000405816399, ""volume"": 105.47562560811949}, ""properties"": {}, ""sites"": [{""species"": [{""element"": ""Tb"", ""occu"": 1}], ""abc"": [0.0, -0.0, -0.0], ""properties"": {""magmom"": -0.0}, ""label"": ""Tb"", ""xyz"": [0.0, 0.0, 0.0]}, {""species"": [{""element"": ""Tl"", ""occu"": 1}], ""abc"": [0.5, 0.5, 0.5], ""properties"": {""magmom"": -0.0}, ""label"": ""Tl"", ""xyz"": [-4.031738295, -2.327725255, -3.746336175]}, {""species"": [{""element"": ""S"", ""occu"": 1}], ""abc"": [0.73305137, 0.73305137, 0.80084588], ""properties"": {""magmom"": 0.0}, ""label"": ""S"", ""xyz"": [-6.047607404884222, -3.49158787103086, -6.000475781687419]}, {""species"": [{""element"": ""S"", ""occu"": 1}], ""abc"": [0.26694863, 0.26694863, 0.19915412000000002], ""properties"": {""magmom"": 0.0}, ""label"": ""S"", ""xyz"": [-2.015869185115778, -1.1638626389691402, -1.4921965683125822]}]}",TbTlS2,166,1.6461000000000006,0.0,0.0151172630343494,0.0250311175101528,0.0097810335126858
mp-8176,"{""@module"": ""pymatgen.core.structure"", ""@class"": ""Structure"", ""charge"": 0, ""lattice"": {""matrix"": [[3.36054619, -0.0052156, 5.80849558], [1.55519918, 2.97903628, 5.80849558], [-0.008620899999999, -0.0052156, 6.71057547]], ""pbc"": [true, true, true], ""a"": 6.710582597694958, ""b"": 6.710582877061309, ""c"": 6.7105830343544595, ""alpha"": 30.12543493259369, ""beta"": 30.125428418589852, ""gamma"": 30.125431443763834, ""volume"": 67.43939834473689}, ""properties"": {}, ""sites"": [{""species"": [{""element"": ""Rb"", ""occu"": 1}], ""abc"": [0.5, 0.5, 0.5], ""properties"": {""magmom"": 0.0}, ""label"": ""Rb"", ""xyz"": [2.4535622350000006, 1.4843025399999998, 9.163783315]}, {""species"": [{""element"": ""Tl"", ""occu"": 1}], ""abc"": [0.0, -0.0, 0.0], ""properties"": {""magmom"": 0.0}, ""label"": ""Tl"", ""xyz"": [0.0, 0.0, 0.0]}, {""species"": [{""element"": ""O"", ""occu"": 1}], ""abc"": [0.72816061, 0.72816061, 0.72816061], ""properties"": {""magmom"": -0.0}, ""label"": ""O"", ""xyz"": [3.5731747474211275, 2.161621285901899, 13.345412097116444]}, {""species"": [{""element"": ""O"", ""occu"": 1}], ""abc"": [0.27183939, 0.27183939, 0.27183939], ""properties"": {""magmom"": -0.0}, ""label"": ""O"", ""xyz"": [1.3339497225788737, 0.8069837940981011, 4.982154532883556]}]}",RbTlO2,166,0.8561000000000001,0.0,0.0603116615794208,0.2216516483284092,0.0184408318763367
mp-27834,"{""@module"": ""pymatgen.core.structure"", ""@class"": ""Structure"", ""charge"": 0, ""lattice"": {""matrix"": [[6.01802654, 1e-08, 3.4745093], [2.00600953, 5.67385045, 3.4745093], [-1e-08, -1e-08, 6.94901962]], ""pbc"": [true, true, true], ""a"": 6.949018514288968, ""b"": 6.94901921419149, ""c"": 6.94901962, ""alpha"": 60.00000302898377, ""beta"": 59.999999674437426, ""gamma"": 59.99999734783929, ""volume"": 237.2769337619848}, ""properties"": {}, ""sites"": [{""species"": [{""element"": ""Tl"", ""occu"": 1}], ""abc"": [0.25, 0.25, 0.25], ""properties"": {""magmom"": 0.0}, ""label"": ""Tl"", ""xyz"": [2.006009015, 1.4184626125, 3.474509555]}, {""species"": [{""element"": ""Tl"", ""occu"": 1}], ""abc"": [0.75, 0.75, 0.75], ""properties"": {""magmom"": 0.0}, ""label"": ""Tl"", ""xyz"": [6.018027045, 4.2553878375, 10.423528665]}, {""species"": [{""element"": ""Pt"", ""occu"": 1}], ""abc"": [-0.0, 0.0, 0.0], ""properties"": {""magmom"": 0.0}, ""label"": ""Pt"", ""xyz"": [0.0, 0.0, 0.0]}, {""species"": [{""element"": ""Cl"", ""occu"": 1}], ""abc"": [0.76283531, 0.23716469, 0.23716469], ""properties"": {""magmom"": -0.0}, ""label"": ""Cl"", ""xyz"": [5.066517767176976, 1.3456369883373167, 5.122571383981218]}, {""species"": [{""element"": ""Cl"", ""occu"": 1}], ""abc"": [0.76283531, 0.76283531, 0.23716469], ""properties"": {""magmom"": -0.0}, ""label"": ""Cl"", ""xyz"": [6.121018040537986, 4.328213472176095, 6.949018841907984]}, {""species"": [{""element"": ""Cl"", ""occu"": 1}], ""abc"": [0.23716469, 0.23716469, 0.76283531], ""properties"": {""magmom"": -0.0}, ""label"": ""Cl"", ""xyz"": [1.9030180194620154, 1.3456369778239043, 6.949019378092016]}, {""species"": [{""element"": ""Cl"", ""occu"": 1}], ""abc"": [0.76283531, 0.23716469, 0.76283531], ""properties"": {""magmom"": -0.0}, ""label"": ""Cl"", ""xyz"": [5.06651776192027, 1.3456369830806105, 8.775466836018783]}, {""species"": [{""element"": ""Cl"", ""occu"": 1}], ""abc"": [0.23716469, 0.76283531, 0.23716469], ""properties"": {""magmom"": -0.0}, ""label"": ""Cl"", ""xyz"": [2.95751829807973, 4.328213466919389, 5.122571383981218]}, {""species"": [{""element"": ""Cl"", ""occu"": 1}], ""abc"": [0.23716469, 0.76283531, 0.76283531], ""properties"": {""magmom"": -0.0}, ""label"": ""Cl"", ""xyz"": [2.957518292823024, 4.328213461662683, 8.775466836018783]}]}",Tl2PtCl6,225,1.7137000000000002,0.0,0.0100522615077441,0.0197227096687569,0.0063835401811154