id,structure_json,formula,spacegroup,bandgap,energy_above_hull,k_1064,k_755,k_1500
mp-9126,"{""@module"": ""pymatgen.core.structure"", ""@class"": ""Structure"", ""charge"": 0, ""lattice"": {""matrix"": [[5.29166341, -0.0, 0.0], [-2.64583171, 4.58271447, -0.0], [-0.0, -0.0, 5.38664006]], ""pbc"": [true, true, true], ""a"": 5.29166341, ""b"": 5.2916630043105455, ""c"": 5.38664006, ""alpha"": 90.0, ""beta"": 90.0, ""gamma"": 120.00000259859645, ""volume"": 130.62700440571982}, ""properties"": {}, ""sites"": [{""species"": [{""element"": ""Sr"", ""occu"": 1}], ""abc"": [-0.0, -0.0, 0.0], ""properties"": {""magmom"": -0.0}, ""label"": ""Sr"", ""xyz"": [0.0, 0.0, 0.0]}, {""species"": [{""element"": ""Sb"", ""occu"": 1}], ""abc"": [0.333333, 0.666667, 0.5], ""properties"": {""magmom"": -0.0}, ""label"": ""Sb"", ""xyz"": [-2.6491650400028988e-06, 3.05514450757149, 2.69332003]}, {""species"": [{""element"": ""Sb"", ""occu"": 1}], ""abc"": [0.666667, 0.333333, 0.5], ""properties"": {""magmom"": -0.0}, ""label"": ""Sb"", ""xyz"": [2.6458343491650402, 1.52756996242851, 2.69332003]}, {""species"": [{""element"": ""O"", ""occu"": 1}], ""abc"": [0.37716844, 0.37716844, 0.70543987], ""properties"": {""magmom"": 0.0}, ""label"": ""O"", ""xyz"": [0.997924214791548, 1.7284552676153269, 3.7999506636631923]}, {""species"": [{""element"": ""O"", ""occu"": 1}], ""abc"": [0.6228315600000001, -0.0, 0.70543987], ""properties"": {""magmom"": 0.0}, ""label"": ""O"", ""xyz"": [3.29581497664522, 0.0, 3.7999506636631923]}, {""species"": [{""element"": ""O"", ""occu"": 1}], ""abc"": [-0.0, 0.6228315600000001, 0.70543987], ""properties"": {""magmom"": 0.0}, ""label"": ""O"", ""xyz"": [-1.6479074914367677, 2.8542592023846733, 3.7999506636631923]}, {""species"": [{""element"": ""O"", ""occu"": 1}], ""abc"": [0.37716844, -0.0, 0.29456013000000003], ""properties"": {""magmom"": 0.0}, ""label"": ""O"", ""xyz"": [1.9958484333547803, 0.0, 1.586689396336808]}, {""species"": [{""element"": ""O"", ""occu"": 1}], ""abc"": [0.0, 0.37716844, 0.29456013000000003], ""properties"": {""magmom"": 0.0}, ""label"": ""O"", ""xyz"": [-0.9979242185632323, 1.7284552676153269, 1.586689396336808]}, {""species"": [{""element"": ""O"", ""occu"": 1}], ""abc"": [0.6228315600000001, 0.6228315600000001, 0.29456013000000003], ""properties"": {""magmom"": 0.0}, ""label"": ""O"", ""xyz"": [1.647907485208452, 2.8542592023846733, 1.586689396336808]}]}",Sr(SbO3)2,162,2.7791,0.0,0.0033364301419029,0.0052816190623914,0.002252324266213
mp-23956,"{""@module"": ""pymatgen.core.structure"", ""@class"": ""Structure"", ""charge"": 0, ""lattice"": {""matrix"": [[3.85604681, -0.0, -1.09656436], [-0.31183588, 3.84341893, -1.09656436], [0.00493298, 0.0053487, 7.34548589]], ""pbc"": [true, true, true], ""a"": 4.008933822917682, ""b"": 4.008935529933093, ""c"": 7.345489493769116, ""alpha"": 105.83595768137414, ""beta"": 105.83595896468606, ""gamma"": 90.00000126450382, ""volume"": 108.90829911868055}, ""properties"": {}, ""sites"": [{""species"": [{""element"": ""K"", ""occu"": 1}], ""abc"": [0.64392006, 0.64392006, 0.28783912], ""properties"": {""magmom"": -0.0}, ""label"": ""K"", ""xyz"": [2.283608419320433, 2.47639411311188, 0.7021186175798937]}, {""species"": [{""element"": ""K"", ""occu"": 1}], ""abc"": [0.35607994, 0.35607994, 0.71216088], ""properties"": {""magmom"": -0.0}, ""label"": ""K"", ""xyz"": [1.2655354906795664, 1.3723735168881201, 4.450238552420107]}, {""species"": [{""element"": ""Mg"", ""occu"": 1}], ""abc"": [-0.0, 0.0, 0.0], ""properties"": {""magmom"": 0.0}, ""label"": ""Mg"", ""xyz"": [0.0, 0.0, 0.0]}, {""species"": [{""element"": ""H"", ""occu"": 1}], ""abc"": [0.5, 0.0, 0.0], ""properties"": {""magmom"": -0.0}, ""label"": ""H"", ""xyz"": [1.928023405, 0.0, -0.54828218]}, {""species"": [{""element"": ""H"", ""occu"": 1}], ""abc"": [-0.0, 0.5, 0.0], ""properties"": {""magmom"": -0.0}, ""label"": ""H"", ""xyz"": [-0.15591794, 1.921709465, -0.54828218]}, {""species"": [{""element"": ""H"", ""occu"": 1}], ""abc"": [0.85194795, 0.85194795, 0.70389391], ""properties"": {""magmom"": 0.0}, ""label"": ""H"", ""xyz"": [3.0229555307612452, 3.2781577957611105, 3.302011266871806]}, {""species"": [{""element"": ""H"", ""occu"": 1}], ""abc"": [0.14805205, 0.14805205, 0.29610609], ""properties"": {""magmom"": 0.0}, ""label"": ""H"", ""xyz"": [0.5261883792387547, 0.5706098342388896, 1.850345903128194]}]}",K2MgH4,139,3.5242,0.0,0.0038637890925529,0.0058607556295653,0.0025947338466951
mp-1014251,"{""@module"": ""pymatgen.core.structure"", ""@class"": ""Structure"", ""charge"": 0, ""lattice"": {""matrix"": [[2.8053472900000003, -1.619668369999999, -0.0], [-0.0, 3.23933674, 0.0], [-0.0, 0.0, 5.27934611]], ""pbc"": [true, true, true], ""a"": 3.239336204577845, ""b"": 3.23933674, ""c"": 5.27934611, ""alpha"": 90.0, ""beta"": 90.0, ""gamma"": 120.00000546767043, ""volume"": 47.97587059517868}, ""properties"": {}, ""sites"": [{""species"": [{""element"": ""Hf"", ""occu"": 1}], ""abc"": [0.666667, 0.333333, 0.79272253], ""properties"": {""magmom"": -0.0}, ""label"": ""Hf"", ""xyz"": [1.8702324617824302, -1.6196683694236214e-06, 4.185056605064858]}, {""species"": [{""element"": ""Zn"", ""occu"": 1}], ""abc"": [0.0, 0.0, 0.34324712], ""properties"": {""magmom"": 0.0}, ""label"": ""Zn"", ""xyz"": [0.0, 0.0, 1.812120347740703]}, {""species"": [{""element"": ""N"", ""occu"": 1}], ""abc"": [0.0, -0.0, 0.97707097], ""properties"": {""magmom"": -0.0}, ""label"": ""N"", ""xyz"": [0.0, 0.0, 5.158295824663426]}, {""species"": [{""element"": ""N"", ""occu"": 1}], ""abc"": [0.333333, 0.666667, 0.53965838], ""properties"": {""magmom"": 0.0}, ""label"": ""N"", ""xyz"": [0.9351148282175701, 1.6196699896683704, 2.8490433691819015]}]}",HfZnN2,156,2.2873,0.0,0.0142142419984689,0.0241192879410772,0.0091989307846889
mp-697044,"{""@module"": ""pymatgen.core.structure"", ""@class"": ""Structure"", ""charge"": 0, ""lattice"": {""matrix"": [[4.04620784, 4.04620784, -0.0], [0.0, 4.04620784, 4.04620784], [4.04620784, -0.0, 4.04620784]], ""pbc"": [true, true, true], ""a"": 5.722202003508347, ""b"": 5.722202003508347, ""c"": 5.722202003508347, ""alpha"": 60.00000000000001, ""beta"": 60.00000000000001, ""gamma"": 60.00000000000001, ""volume"": 132.4873939101363}, ""properties"": {}, ""sites"": [{""species"": [{""element"": ""Ba"", ""occu"": 1}], ""abc"": [0.75, 0.75, 0.75], ""properties"": {""magmom"": 0.0}, ""label"": ""Ba"", ""xyz"": [6.06931176, 6.06931176, 6.06931176]}, {""species"": [{""element"": ""Ba"", ""occu"": 1}], ""abc"": [0.25, 0.25, 0.25], ""properties"": {""magmom"": 0.0}, ""label"": ""Ba"", ""xyz"": [2.02310392, 2.02310392, 2.02310392]}, {""species"": [{""element"": ""H"", ""occu"": 1}], ""abc"": [0.21408291000000002, 0.78591709, 0.78591709], ""properties"": {""magmom"": -0.0}, ""label"": ""H"", ""xyz"": [4.04620784, 4.04620784, 6.359967782295971]}, {""species"": [{""element"": ""H"", ""occu"": 1}], ""abc"": [0.21408291000000002, 0.21408291000000002, 0.78591709], ""properties"": {""magmom"": -0.0}, ""label"": ""H"", ""xyz"": [4.04620784, 1.732447897704029, 4.04620784]}, {""species"": [{""element"": ""H"", ""occu"": 1}], ""abc"": [0.21408291000000002, 0.78591709, 0.21408291000000002], ""properties"": {""magmom"": -0.0}, ""label"": ""H"", ""xyz"": [1.732447897704029, 4.04620784, 4.04620784]}, {""species"": [{""element"": ""H"", ""occu"": 1}], ""abc"": [0.78591709, 0.21408291000000002, 0.21408291000000002], ""properties"": {""magmom"": -0.0}, ""label"": ""H"", ""xyz"": [4.04620784, 4.04620784, 1.732447897704029]}, {""species"": [{""element"": ""H"", ""occu"": 1}], ""abc"": [0.78591709, 0.78591709, 0.21408291000000002], ""properties"": {""magmom"": -0.0}, ""label"": ""H"", ""xyz"": [4.04620784, 6.359967782295971, 4.04620784]}, {""species"": [{""element"": ""H"", ""occu"": 1}], ""abc"": [0.78591709, 0.21408291000000002, 0.78591709], ""properties"": {""magmom"": -0.0}, ""label"": ""H"", ""xyz"": [6.359967782295971, 4.04620784, 4.04620784]}, {""species"": [{""element"": ""Os"", ""occu"": 1}], ""abc"": [-0.0, 0.0, 0.0], ""properties"": {""magmom"": -0.0}, ""label"": ""Os"", ""xyz"": [0.0, 0.0, 0.0]}]}",Ba2H6Os,225,1.9341,0.0,0.0080292221198786,0.0141379425418597,0.0052213145515142
mp-8430,"{""@module"": ""pymatgen.core.structure"", ""@class"": ""Structure"", ""charge"": 0, ""lattice"": {""matrix"": [[4.31172379, -0.0, 0.0], [0.0, 4.31172379, 0.0], [0.0, -0.0, 6.9418714999999995]], ""pbc"": [true, true, true], ""a"": 4.31172379, ""b"": 4.31172379, ""c"": 6.9418714999999995, ""alpha"": 90.0, ""beta"": 90.0, ""gamma"": 90.0, ""volume"": 129.05606955174883}, ""properties"": {}, ""sites"": [{""species"": [{""element"": ""K"", ""occu"": 1}], ""abc"": [0.25, 0.25, 0.66023995], ""properties"": {""magmom"": 0.0}, ""label"": ""K"", ""xyz"": [1.0779309475, 1.0779309475, 4.583300892066425]}, {""species"": [{""element"": ""K"", ""occu"": 1}], ""abc"": [0.75, 0.75, 0.33976005], ""properties"": {""magmom"": 0.0}, ""label"": ""K"", ""xyz"": [3.2337928425, 3.2337928425, 2.358570607933575]}, {""species"": [{""element"": ""Li"", ""occu"": 1}], ""abc"": [0.25, 0.75, -0.0], ""properties"": {""magmom"": -0.0}, ""label"": ""Li"", ""xyz"": [1.0779309475, 3.2337928425, 0.0]}, {""species"": [{""element"": ""Li"", ""occu"": 1}], ""abc"": [0.75, 0.25, -0.0], ""properties"": {""magmom"": -0.0}, ""label"": ""Li"", ""xyz"": [3.2337928425, 1.0779309475, 0.0]}, {""species"": [{""element"": ""S"", ""occu"": 1}], ""abc"": [0.25, 0.25, 0.187272499999999], ""properties"": {""magmom"": -0.0}, ""label"": ""S"", ""xyz"": [1.0779309475, 1.0779309475, 1.300021630483743]}, {""species"": [{""element"": ""S"", ""occu"": 1}], ""abc"": [0.75, 0.75, 0.812727499999999], ""properties"": {""magmom"": -0.0}, ""label"": ""S"", ""xyz"": [3.2337928425, 3.2337928425, 5.641849869516243]}]}",KLiS,129,3.0628,0.0,0.0051498801835328,0.0080758045255763,0.0033690968357538
mp-976876,"{""@module"": ""pymatgen.core.structure"", ""@class"": ""Structure"", ""charge"": 0, ""lattice"": {""matrix"": [[5.13836879, -3.7e-07, -1.3710000000000001e-05], [-2.56918533, 4.44988931, -2.21e-06], [-1.3810000000000002e-05, -1.1900000000000001e-05, 5.1945433]], ""pbc"": [true, true, true], ""a"": 5.138368790018304, ""b"": 5.13830985160922, ""c"": 5.194543300031988, ""alpha"": 90.00006215143402, ""beta"": 90.00030519862037, ""gamma"": 120.00039560236765, ""volume"": 118.77412289190336}, ""properties"": {}, ""sites"": [{""species"": [{""element"": ""K"", ""occu"": 1}], ""abc"": [0.33330263, 0.66666419, 0.2782363], ""properties"": {""magmom"": -0.0}, ""label"": ""K"", ""xyz"": [-0.00015586781071776534, 2.9665784181068657, 1.4453044650748728]}, {""species"": [{""element"": ""K"", ""occu"": 1}], ""abc"": [0.6666363, 0.33333248, 0.72176522], ""properties"": {""magmom"": 0.0}, ""label"": ""K"", ""xyz"": [2.569020272994871, 1.4832838037662395, 3.7492308114755724]}, {""species"": [{""element"": ""Pt"", ""occu"": 1}], ""abc"": [0.99998925, 6.3e-07, -1.429999999999999e-06], ""properties"": {""magmom"": 0.0}, ""label"": ""Pt"", ""xyz"": [5.138311933968499, 2.4334512597999993e-06, -2.1138050928799995e-05]}, {""species"": [{""element"": ""C"", ""occu"": 1}], ""abc"": [0.99998704, 1.58e-06, 0.3778851], ""properties"": {""magmom"": -0.0}, ""label"": ""C"", ""xyz"": [5.13829291883443, 2.163997214999998e-06, 1.9629268045490198]}, {""species"": [{""element"": ""C"", ""occu"": 1}], ""abc"": [0.99998578, -8.8e-07, 0.62211381], ""properties"": {""magmom"": 0.0}, ""label"": ""C"", ""xyz"": [5.138289391887181, -1.16890516704e-05, 3.231583413769874]}]}",K2PtC2,164,1.1775000000000002,0.0,0.4064778479298317,1.4286806062204276,0.0816953780882017
mp-1960,"{""@module"": ""pymatgen.core.structure"", ""@class"": ""Structure"", ""charge"": 0, ""lattice"": {""matrix"": [[2.849803, 0.0, 1.645335], [0.949934, 2.68682, 1.645335], [0.0, 0.0, 3.290669]], ""pbc"": [true, true, true], ""a"": 3.29066929378113, ""b"": 3.2906691688744707, ""c"": 3.290669, ""alpha"": 59.999991645039074, ""beta"": 59.99999290067432, ""gamma"": 59.999999815343436, ""volume"": 25.196348792602333}, ""properties"": {}, ""sites"": [{""species"": [{""element"": ""Li"", ""occu"": 1}], ""abc"": [0.75, 0.75, 0.75], ""properties"": {""magmom"": 0.0}, ""label"": ""Li"", ""xyz"": [2.8498027500000003, 2.0151149999999998, 4.93600425]}, {""species"": [{""element"": ""Li"", ""occu"": 1}], ""abc"": [0.25, 0.25, 0.25], ""properties"": {""magmom"": 0.0}, ""label"": ""Li"", ""xyz"": [0.94993425, 0.671705, 1.64533475]}, {""species"": [{""element"": ""O"", ""occu"": 1}], ""abc"": [0.0, 0.0, 0.0], ""properties"": {""magmom"": 0.0}, ""label"": ""O"", ""xyz"": [0.0, 0.0, 0.0]}]}",Li2O,225,4.9861,0.0,0.0016420301906399,0.002463301341401,0.0011840612366655
mp-27850,"{""@module"": ""pymatgen.core.structure"", ""@class"": ""Structure"", ""charge"": 0, ""lattice"": {""matrix"": [[3.26575402, 0.0, 0.0], [0.0, 3.94206289, 0.0], [0.0, 0.0, 8.09629069]], ""pbc"": [true, true, true], ""a"": 3.26575402, ""b"": 3.94206289, ""c"": 8.09629069, ""alpha"": 90.0, ""beta"": 90.0, ""gamma"": 90.0, ""volume"": 104.2300896701422}, ""properties"": {}, ""sites"": [{""species"": [{""element"": ""Ti"", ""occu"": 1}], ""abc"": [0.75, 0.25, 0.09576351], ""properties"": {""magmom"": -0.0}, ""label"": ""Ti"", ""xyz"": [2.4493155150000003, 0.9855157225, 0.7753292144547219]}, {""species"": [{""element"": ""Ti"", ""occu"": 1}], ""abc"": [0.25, 0.75, 0.9042364900000001], ""properties"": {""magmom"": -0.0}, ""label"": ""Ti"", ""xyz"": [0.816438505, 2.9565471675, 7.320961475545278]}, {""species"": [{""element"": ""N"", ""occu"": 1}], ""abc"": [0.25, 0.25, 0.95384219], ""properties"": {""magmom"": 0.0}, ""label"": ""N"", ""xyz"": [0.816438505, 0.9855157225, 7.722583642626211]}, {""species"": [{""element"": ""N"", ""occu"": 1}], ""abc"": [0.75, 0.75, 0.04615781], ""properties"": {""magmom"": 0.0}, ""label"": ""N"", ""xyz"": [2.4493155150000003, 2.9565471675, 0.3737070473737889]}, {""species"": [{""element"": ""Cl"", ""occu"": 1}], ""abc"": [0.75, 0.75, 0.67807742], ""properties"": {""magmom"": 0.0}, ""label"": ""Cl"", ""xyz"": [2.4493155150000003, 2.9565471675, 5.48991190264522]}, {""species"": [{""element"": ""Cl"", ""occu"": 1}], ""abc"": [0.25, 0.25, 0.32192258], ""properties"": {""magmom"": 0.0}, ""label"": ""Cl"", ""xyz"": [0.816438505, 0.9855157225, 2.6063787873547803]}]}",TiNCl,59,0.5517000000000003,0.0,0.2624808418329267,0.1944984743813769,0.1546369957570942
mp-2319,"{""@module"": ""pymatgen.core.structure"", ""@class"": ""Structure"", ""charge"": 0, ""lattice"": {""matrix"": [[2.94564109, 0.0, 0.0], [0.0, 5.09488199, 0.0], [0.0, -0.0, 5.90694818]], ""pbc"": [true, true, true], ""a"": 2.94564109, ""b"": 5.09488199, ""c"": 5.90694818, ""alpha"": 90.0, ""beta"": 90.0, ""gamma"": 90.0, ""volume"": 88.64966921430491}, ""properties"": {}, ""sites"": [{""species"": [{""element"": ""P"", ""occu"": 1}], ""abc"": [0.5, 0.33695504, 0.87318119], ""properties"": {""magmom"": 0.0}, ""label"": ""P"", ""xyz"": [1.472820545, 1.7167461647357296, 5.157836041080734]}, {""species"": [{""element"": ""P"", ""occu"": 1}], ""abc"": [0.5, 0.66304496, 0.12681881], ""properties"": {""magmom"": 0.0}, ""label"": ""P"", ""xyz"": [1.472820545, 3.3781358252642706, 0.7491121389192658]}, {""species"": [{""element"": ""P"", ""occu"": 1}], ""abc"": [-0.0, 0.16304496000000002, 0.37318119], ""properties"": {""magmom"": 0.0}, ""label"": ""P"", ""xyz"": [0.0, 0.8306948302642705, 2.204361951080734]}, {""species"": [{""element"": ""P"", ""occu"": 1}], ""abc"": [-0.0, 0.83695504, 0.6268188100000001], ""properties"": {""magmom"": 0.0}, ""label"": ""P"", ""xyz"": [0.0, 4.264187159735729, 3.702586228919266]}, {""species"": [{""element"": ""Os"", ""occu"": 1}], ""abc"": [0.5, 0.5, 0.5], ""properties"": {""magmom"": -0.0}, ""label"": ""Os"", ""xyz"": [1.472820545, 2.547440995, 2.95347409]}, {""species"": [{""element"": ""Os"", ""occu"": 1}], ""abc"": [0.0, -0.0, -0.0], ""properties"": {""magmom"": -0.0}, ""label"": ""Os"", ""xyz"": [0.0, 0.0, 0.0]}]}",P2Os,58,0.7984999999999998,0.0,0.380765774303588,0.7116251414284529,0.0711880982522366
mp-9306,"{""@module"": ""pymatgen.core.structure"", ""@class"": ""Structure"", ""charge"": 0, ""lattice"": {""matrix"": [[3.71064817, 0.0, -1.06026853], [-0.30295751, 3.69825975, -1.06026853], [-0.01794849, -0.019478620000000002, 6.96044725]], ""pbc"": [true, true, true], ""a"": 3.8591552439922276, ""b"": 3.859155061285284, ""c"": 6.960497646358552, ""alpha"": 106.09426394322608, ""beta"": 106.09426574705238, ""gamma"": 89.99999759307788, ""volume"": 95.36453541221042}, ""properties"": {}, ""sites"": [{""species"": [{""element"": ""Sr"", ""occu"": 1}], ""abc"": [0.65834194, 0.65834194, 0.31668388000000003], ""properties"": {""magmom"": -0.0}, ""label"": ""Sr"", ""xyz"": [2.237741682570939, 2.428550933480269, 0.8082229597430333]}, {""species"": [{""element"": ""Sr"", ""occu"": 1}], ""abc"": [0.34165806, 0.34165806, 0.68331612], ""properties"": {""magmom"": -0.0}, ""label"": ""Sr"", ""xyz"": [1.1520004874290606, 1.2502301965197307, 4.031687230256966]}, {""species"": [{""element"": ""Zn"", ""occu"": 1}], ""abc"": [0.0, 0.0, 0.0], ""properties"": {""magmom"": -0.0}, ""label"": ""Zn"", ""xyz"": [0.0, 0.0, 0.0]}, {""species"": [{""element"": ""N"", ""occu"": 1}], ""abc"": [0.85725385, 0.85725385, 0.7145077], ""properties"": {""magmom"": 0.0}, ""label"": ""N"", ""xyz"": [2.908431603585668, 3.1564297850121634, 3.1554545968161434]}, {""species"": [{""element"": ""N"", ""occu"": 1}], ""abc"": [0.14274615000000002, 0.14274615000000002, 0.2854923], ""properties"": {""magmom"": 0.0}, ""label"": ""N"", ""xyz"": [0.48131056641433195, 0.5223513449878365, 1.6844555931838556]}]}",Sr2ZnN2,139,0.7303999999999999,0.0,0.0552198586821559,0.3707299680744777,0.023659184788541
mp-3748,"{""@module"": ""pymatgen.core.structure"", ""@class"": ""Structure"", ""charge"": 0, ""lattice"": {""matrix"": [[2.76349999, 0.00386241, 5.19166226], [1.29869841, 2.43932997, 5.19166226], [0.00641937, 0.00386241, 5.88134801]], ""pbc"": [true, true, true], ""a"": 5.881352236930663, ""b"": 5.881352334674827, ""c"": 5.881352781567618, ""alpha"": 27.963630605370046, ""beta"": 27.963641779225192, ""gamma"": 27.963618004662134, ""volume"": 39.506645076679426}, ""properties"": {}, ""sites"": [{""species"": [{""element"": ""Al"", ""occu"": 1}], ""abc"": [0.5, 0.5, 0.5], ""properties"": {""magmom"": 0.0}, ""label"": ""Al"", ""xyz"": [2.0343088849999997, 1.223527395, 8.132336265]}, {""species"": [{""element"": ""Cu"", ""occu"": 1}], ""abc"": [0.0, -0.0, -0.0], ""properties"": {""magmom"": -0.0}, ""label"": ""Cu"", ""xyz"": [0.0, 0.0, 0.0]}, {""species"": [{""element"": ""O"", ""occu"": 1}], ""abc"": [0.89010528, 0.89010528, 0.89010528], ""properties"": {""magmom"": -0.0}, ""label"": ""O"", ""xyz"": [3.6214981593788256, 2.1781363890282917, 14.47727089642396]}, {""species"": [{""element"": ""O"", ""occu"": 1}], ""abc"": [0.10989472, 0.10989472, 0.10989472], ""properties"": {""magmom"": -0.0}, ""label"": ""O"", ""xyz"": [0.44711961062117445, 0.26891840097170877, 1.7874016335760414]}]}",AlCuO2,166,1.8099,0.000369936249986,0.0141250525726086,0.0261119513052207,0.0088763094540313