id,structure_json,formula,spacegroup,bandgap,energy_above_hull,k_1064,k_755,k_1500
mp-422,"{""@module"": ""pymatgen.core.structure"", ""@class"": ""Structure"", ""charge"": 0, ""lattice"": {""matrix"": [[2.98243966, -1e-08, 1.72191074], [0.99414621, 2.81187155, 1.72191074], [-1e-08, -1e-08, 3.44382351]], ""pbc"": [true, true, true], ""a"": 3.4438238808145027, ""b"": 3.4438241675620023, ""c"": 3.44382351, ""alpha"": 60.0000260277515, ""beta"": 60.00002322745178, ""gamma"": 60.00002399738787, ""volume"": 28.880721048437852}, ""properties"": {}, ""sites"": [{""species"": [{""element"": ""Be"", ""occu"": 1}], ""abc"": [0.0, 0.0, 0.0], ""properties"": {""magmom"": -0.0}, ""label"": ""Be"", ""xyz"": [0.0, 0.0, 0.0]}, {""species"": [{""element"": ""S"", ""occu"": 1}], ""abc"": [0.25, 0.25, 0.25], ""properties"": {""magmom"": 0.0}, ""label"": ""S"", ""xyz"": [0.994146465, 0.7029678825000001, 1.7219112475]}]}",BeS,216,3.1809,0.0,0.0043838275372914,0.0063268470908095,0.0029524168167756
mp-375,"{""@module"": ""pymatgen.core.structure"", ""@class"": ""Structure"", ""charge"": 0, ""lattice"": {""matrix"": [[4.13541623, 0.0, 0.0], [0.0, 4.13541623, 0.0], [-0.0, -0.0, 4.13541623]], ""pbc"": [true, true, true], ""a"": 4.13541623, ""b"": 4.13541623, ""c"": 4.13541623, ""alpha"": 90.0, ""beta"": 90.0, ""gamma"": 90.0, ""volume"": 70.7225129067815}, ""properties"": {}, ""sites"": [{""species"": [{""element"": ""U"", ""occu"": 1}], ""abc"": [-0.0, -0.0, -0.0], ""properties"": {""magmom"": -0.0}, ""label"": ""U"", ""xyz"": [0.0, 0.0, 0.0]}, {""species"": [{""element"": ""O"", ""occu"": 1}], ""abc"": [0.0, 0.5, 0.0], ""properties"": {""magmom"": 0.0}, ""label"": ""O"", ""xyz"": [0.0, 2.067708115, 0.0]}, {""species"": [{""element"": ""O"", ""occu"": 1}], ""abc"": [0.5, 0.0, 0.0], ""properties"": {""magmom"": 0.0}, ""label"": ""O"", ""xyz"": [2.067708115, 0.0, 0.0]}, {""species"": [{""element"": ""O"", ""occu"": 1}], ""abc"": [-0.0, 0.0, 0.5], ""properties"": {""magmom"": 0.0}, ""label"": ""O"", ""xyz"": [0.0, 0.0, 2.067708115]}]}",UO3,221,1.608,0.0,0.0263972541426786,0.0591073499565058,0.0149976242756347
mp-755651,"{""@module"": ""pymatgen.core.structure"", ""@class"": ""Structure"", ""charge"": 0, ""lattice"": {""matrix"": [[3.5910479200000003, 5.67e-06, -3.3220000000000004e-05], [-1.7955202, 3.10993621, 5.8380000000000014e-05], [-0.00012348, 0.00017979999999900002, 13.69860018]], ""pbc"": [true, true, true], ""a"": 3.591047920158132, ""b"": 3.5910438624841983, ""c"": 13.698600181736504, ""alpha"": 89.99815902385252, ""beta"": 90.0010464971328, ""gamma"": 119.9998776472499, ""volume"": 152.98514675659035}, ""properties"": {}, ""sites"": [{""species"": [{""element"": ""Cs"", ""occu"": 1}], ""abc"": [0.33327551, 0.66661973, 0.74999109], ""properties"": {""magmom"": 0.002}, ""label"": ""Cs"", ""xyz"": [-0.0002134728608997543, 2.073281574697546, 10.27385592631979]}, {""species"": [{""element"": ""Cs"", ""occu"": 1}], ""abc"": [0.66673284, 0.33329925, 0.25000698], ""properties"": {""magmom"": 0.002}, ""label"": ""Cs"", ""xyz"": [1.7957931713959525, 1.036588137971049, 3.4247429703745267]}, {""species"": [{""element"": ""Gd"", ""occu"": 1}], ""abc"": [0.99999338, 0.99994073, 2.88e-06], ""properties"": {""magmom"": 6.873}, ""label"": ""Gd"", ""xyz"": [1.7956103673894015, 3.1097575545611216, 6.460872825220001e-05]}, {""species"": [{""element"": ""Gd"", ""occu"": 1}], ""abc"": [1.00000118, 8.985e-05, 0.49999785], ""properties"": {""magmom"": 6.873}, ""label"": ""Gd"", ""xyz"": [3.590829090212057, 0.0003749973885886, 6.849237423215857]}, {""species"": [{""element"": ""O"", ""occu"": 1}], ""abc"": [0.33333959, 0.66678271, 0.41658508], ""properties"": {""magmom"": -0.023}, ""label"": ""O"", ""xyz"": [-0.00023482341826746206, 2.073728486063788, 5.706660305106744]}, {""species"": [{""element"": ""O"", ""occu"": 1}], ""abc"": [0.33333859, 0.66658203, 0.08342171], ""properties"": {""magmom"": -0.023}, ""label"": ""O"", ""xyz"": [0.0001630495404760615, 2.0730444812855695, 1.1427884931728594]}, {""species"": [{""element"": ""O"", ""occu"": 1}], ""abc"": [0.66666692, 0.333421099999999, 0.58341192], ""properties"": {""magmom"": -0.023}, ""label"": ""O"", ""xyz"": [1.7952964965387068, 1.0370270295326796, 7.99192395077488]}, {""species"": [{""element"": ""O"", ""occu"": 1}], ""abc"": [0.66665299, 0.333264599999999, 0.91658549], ""properties"": {""magmom"": -0.023}, ""label"": ""O"", ""xyz"": [1.7954863318800576, 1.0366002290447174, 12.555935468074408]}]}",CsGdO2,194,2.4834,0.0,0.0045685990254771,0.0073129771624021,0.0030614560332378
mp-1220912,"{""@module"": ""pymatgen.core.structure"", ""@class"": ""Structure"", ""charge"": 0, ""lattice"": {""matrix"": [[6.76691768, -2.07800479, -0.00312737], [6.76691768, 2.07800479, -0.00312737], [6.13043513, -0.0, 3.53935652]], ""pbc"": [true, true, true], ""a"": 7.078791462926609, ""b"": 7.078791462926609, ""c"": 7.0787908189749915, ""alpha"": 34.14164337193019, ""beta"": 34.14164337193019, ""gamma"": 34.14165152436233, ""volume"": 99.61832922007008}, ""properties"": {}, ""sites"": [{""species"": [{""element"": ""Na"", ""occu"": 1}], ""abc"": [-0.0, -0.0, 0.0], ""properties"": {""magmom"": 0.0}, ""label"": ""Na"", ""xyz"": [0.0, 0.0, 0.0]}, {""species"": [{""element"": ""Pr"", ""occu"": 1}], ""abc"": [0.5, 0.5, 0.5], ""properties"": {""magmom"": -0.0}, ""label"": ""Pr"", ""xyz"": [9.832135245, 0.0, 1.76655089]}, {""species"": [{""element"": ""S"", ""occu"": 1}], ""abc"": [0.2454596, 0.2454596, 0.2454596], ""properties"": {""magmom"": -0.0}, ""label"": ""S"", ""xyz"": [4.826783968767204, 0.0, 0.867233749678088]}, {""species"": [{""element"": ""S"", ""occu"": 1}], ""abc"": [0.7545404, 0.7545404, 0.7545404], ""properties"": {""magmom"": -0.0}, ""label"": ""S"", ""xyz"": [14.837486521232798, 0.0, 2.6658680303219118]}]}",NaPrS2,166,2.2362,0.0,0.0123217375489385,0.0212515093442405,0.0078441767831861
mp-9084,"{""@module"": ""pymatgen.core.structure"", ""@class"": ""Structure"", ""charge"": 0, ""lattice"": {""matrix"": [[8.15832407, -2.06748326, 0.00932361], [8.15832407, 2.06748326, 0.00932361], [7.63033551, 0.0, 3.55117092]], ""pbc"": [true, true, true], ""a"": 8.416223950871617, ""b"": 8.416223950871617, ""c"": 8.416224503791508, ""alpha"": 28.44102476050047, ""beta"": 28.44102476050047, ""gamma"": 28.44103149274617, ""volume"": 119.5024383203065}, ""properties"": {}, ""sites"": [{""species"": [{""element"": ""Cs"", ""occu"": 1}], ""abc"": [-0.0, -0.0, -0.0], ""properties"": {""magmom"": -0.001}, ""label"": ""Cs"", ""xyz"": [0.0, 0.0, 0.0]}, {""species"": [{""element"": ""Gd"", ""occu"": 1}], ""abc"": [0.5, 0.5, 0.5], ""properties"": {""magmom"": 6.894}, ""label"": ""Gd"", ""xyz"": [11.973491825, 0.0, 1.78490907]}, {""species"": [{""element"": ""S"", ""occu"": 1}], ""abc"": [0.77235921, 0.77235921, 0.77235921], ""properties"": {""magmom"": -0.03}, ""label"": ""S"", ""xyz"": [18.495673373796915, 0.0, 2.7571819184540693]}, {""species"": [{""element"": ""S"", ""occu"": 1}], ""abc"": [0.22764079, 0.22764079, 0.22764079], ""properties"": {""magmom"": -0.03}, ""label"": ""S"", ""xyz"": [5.451310276203085, 0.0, 0.8126362215459306]}]}",CsGdS2,166,1.7317,0.0,0.0124537133334788,0.0236319827247906,0.007776947523132
mp-3744,"{""@module"": ""pymatgen.core.structure"", ""@class"": ""Structure"", ""charge"": 0, ""lattice"": {""matrix"": [[2.97508111, 0.0, 0.0], [-1.48754005, 2.5764966, 0.0], [0.0, 0.0, 11.51547288]], ""pbc"": [true, true, true], ""a"": 2.97508111, ""b"": 2.9750815333643486, ""c"": 11.51547288, ""alpha"": 90.0, ""beta"": 90.0, ""gamma"": 119.99998406251842, ""volume"": 88.2693972494368}, ""properties"": {}, ""sites"": [{""species"": [{""element"": ""Na"", ""occu"": 1}], ""abc"": [0.0, -0.0, 0.0], ""properties"": {""magmom"": -0.0}, ""label"": ""Na"", ""xyz"": [0.0, 0.0, 0.0]}, {""species"": [{""element"": ""Na"", ""occu"": 1}], ""abc"": [0.0, -0.0, 0.5], ""properties"": {""magmom"": -0.0}, ""label"": ""Na"", ""xyz"": [0.0, 0.0, 5.75773644]}, {""species"": [{""element"": ""Nb"", ""occu"": 1}], ""abc"": [0.333333, 0.666667, 0.75], ""properties"": {""magmom"": -0.0}, ""label"": ""Nb"", ""xyz"": [-1.1508737199905639e-06, 1.7176652588322001, 8.63660466]}, {""species"": [{""element"": ""Nb"", ""occu"": 1}], ""abc"": [0.666667, 0.333333, 0.25], ""properties"": {""magmom"": -0.0}, ""label"": ""Nb"", ""xyz"": [1.4875422108737202, 0.8588313411678, 2.87886822]}, {""species"": [{""element"": ""O"", ""occu"": 1}], ""abc"": [0.333333, 0.666667, 0.36456138], ""properties"": {""magmom"": 0.0}, ""label"": ""O"", ""xyz"": [-1.1508737199905639e-06, 1.7176652588322001, 4.198096684485375]}, {""species"": [{""element"": ""O"", ""occu"": 1}], ""abc"": [0.666667, 0.333333, 0.86456138], ""properties"": {""magmom"": 0.0}, ""label"": ""O"", ""xyz"": [1.4875422108737202, 0.8588313411678, 9.955833124485375]}, {""species"": [{""element"": ""O"", ""occu"": 1}], ""abc"": [0.333333, 0.666667, 0.13543862], ""properties"": {""magmom"": 0.0}, ""label"": ""O"", ""xyz"": [-1.1508737199905639e-06, 1.7176652588322001, 1.5596397555146257]}, {""species"": [{""element"": ""O"", ""occu"": 1}], ""abc"": [0.666667, 0.333333, 0.6354386200000001], ""properties"": {""magmom"": 0.0}, ""label"": ""O"", ""xyz"": [1.4875422108737202, 0.8588313411678, 7.317376195514627]}]}",NaNbO2,194,1.3863000000000003,0.0,0.0473887455781097,0.2735511157322745,0.024976587116378
mp-14205,"{""@module"": ""pymatgen.core.structure"", ""@class"": ""Structure"", ""charge"": 0, ""lattice"": {""matrix"": [[5.33967604, 0.01842994, 5.38244754], [2.22881399, 4.85230523, 5.38244755], [0.028635380000000002, 0.01842994, 7.58169224]], ""pbc"": [true, true, true], ""a"": 7.581769014925905, ""b"": 7.581768888300808, ""c"": 7.581768716450823, ""alpha"": 44.55489305354121, ""beta"": 44.554904524911976, ""gamma"": 44.554891825279604, ""volume"": 195.0745973899275}, ""properties"": {}, ""sites"": [{""species"": [{""element"": ""K"", ""occu"": 1}], ""abc"": [0.08912218, 0.08912218, 0.08912218], ""properties"": {""magmom"": 0.0}, ""label"": ""K"", ""xyz"": [0.6770723782725937, 0.43573305298313975, 1.6350878584099793]}, {""species"": [{""element"": ""K"", ""occu"": 1}], ""abc"": [0.9108778200000001, 0.9108778200000001, 0.9108778200000001], ""properties"": {""magmom"": 0.0}, ""label"": ""K"", ""xyz"": [6.920053031727406, 4.453432057016861, 16.711499471590024]}, {""species"": [{""element"": ""K"", ""occu"": 1}], ""abc"": [0.5, 0.5, 0.5], ""properties"": {""magmom"": -0.0}, ""label"": ""K"", ""xyz"": [3.7985627049999997, 2.4445825549999998, 9.173293665]}, {""species"": [{""element"": ""Cu"", ""occu"": 1}], ""abc"": [0.5, 0.5, 0.0], ""properties"": {""magmom"": -0.0}, ""label"": ""Cu"", ""xyz"": [3.7842450149999998, 2.435367585, 5.382447545]}, {""species"": [{""element"": ""Cu"", ""occu"": 1}], ""abc"": [-0.0, 0.5, 0.5], ""properties"": {""magmom"": -0.0}, ""label"": ""Cu"", ""xyz"": [1.128724685, 2.435367585, 6.482069895]}, {""species"": [{""element"": ""Cu"", ""occu"": 1}], ""abc"": [0.5, 0.0, 0.5], ""properties"": {""magmom"": -0.0}, ""label"": ""Cu"", ""xyz"": [2.6841557099999998, 0.01842994, 6.48206989]}, {""species"": [{""element"": ""As"", ""occu"": 1}], ""abc"": [0.74711846, 0.74711846, 0.74711846], ""properties"": {""magmom"": -0.0}, ""label"": ""As"", ""xyz"": [5.675952636746069, 3.65278550766893, 13.707074072245113]}, {""species"": [{""element"": ""As"", ""occu"": 1}], ""abc"": [0.25288154, 0.25288154, 0.25288154], ""properties"": {""magmom"": -0.0}, ""label"": ""As"", ""xyz"": [1.9211727732539314, 1.2363796023310696, 4.6395132577548885]}]}",K3Cu3As2,166,1.3312,0.0,0.0912968945869978,0.6270781719421384,0.0381159937901417
mp-998552,"{""@module"": ""pymatgen.core.structure"", ""@class"": ""Structure"", ""charge"": 0, ""lattice"": {""matrix"": [[-0.00026379, -4.17004162, 0.00252503], [-4.16909044, 0.00017783, -0.00252252], [0.00248418, -0.00293734, -4.17037486]], ""pbc"": [true, true, true], ""a"": 4.170042392817354, ""b"": 4.169091206921486, ""c"": 4.170376634314528, ""alpha"": 89.9994643006345, ""beta"": 89.99434030651166, ""gamma"": 89.99884047112508, ""volume"": 72.50319461578196}, ""properties"": {}, ""sites"": [{""species"": [{""element"": ""Ba"", ""occu"": 1}], ""abc"": [0.98792422, 0.9999652, 0.99642496], ""properties"": {""magmom"": -0.0}, ""label"": ""Ba"", ""xyz"": [-4.166730661225549, -4.122434129886527, -4.155493496983583]}, {""species"": [{""element"": ""Hf"", ""occu"": 1}], ""abc"": [0.48800739, 0.49998673, 0.49787533], ""properties"": {""magmom"": -0.0}, ""label"": ""Hf"", ""xyz"": [-2.08338181570199, -2.0363846436491984, -2.0763557528723915]}, {""species"": [{""element"": ""O"", ""occu"": 1}], ""abc"": [0.48803115, 8.2e-06, 0.49889014000000004], ""properties"": {""magmom"": 0.0}, ""label"": ""O"", ""xyz"": [0.0010764086293186999, -2.0365756158620845, -2.0793266251478597]}, {""species"": [{""element"": ""O"", ""occu"": 1}], ""abc"": [0.98799671, 0.50002674, 0.49886535], ""properties"": {""magmom"": -0.0}, ""label"": ""O"", ""xyz"": [-2.083678053805333, -4.121363818515065, -2.0792221202846344]}, {""species"": [{""element"": ""O"", ""occu"": 1}], ""abc"": [0.48804153, 0.50001213, 0.9979412200000001], ""properties"": {""magmom"": -0.0}, ""label"": ""O"", ""xyz"": [-2.082245465922336, -2.037995867894556, -4.161817946739401]}]}",BaHfO3,221,3.5542,0.0,0.0035973391573246,0.0054776819952036,0.0024704695162197
mp-15790,"{""@module"": ""pymatgen.core.structure"", ""@class"": ""Structure"", ""charge"": 0, ""lattice"": {""matrix"": [[6.23568206, -1.94023323, -0.00498892], [6.23568206, 1.94023323, -0.00498892], [5.63462384, -0.0, 3.30140604]], ""pbc"": [true, true, true], ""a"": 6.530563576715631, ""b"": 6.530563576715631, ""c"": 6.530564114932555, ""alpha"": 34.5670649095056, ""beta"": 34.5670649095056, ""gamma"": 34.56706205157215, ""volume"": 79.99437682330124}, ""properties"": {}, ""sites"": [{""species"": [{""element"": ""Li"", ""occu"": 1}], ""abc"": [0.5, 0.5, 0.5], ""properties"": {""magmom"": 0.0}, ""label"": ""Li"", ""xyz"": [9.05299398, 0.0, 1.6457141]}, {""species"": [{""element"": ""Ho"", ""occu"": 1}], ""abc"": [-0.0, -0.0, -0.0], ""properties"": {""magmom"": -0.0}, ""label"": ""Ho"", ""xyz"": [0.0, 0.0, 0.0]}, {""species"": [{""element"": ""S"", ""occu"": 1}], ""abc"": [0.7498958, 0.7498958, 0.7498958], ""properties"": {""magmom"": -0.0}, ""label"": ""S"", ""xyz"": [13.57760432605457, 0.0, 2.46822818318156]}, {""species"": [{""element"": ""S"", ""occu"": 1}], ""abc"": [0.2501042, 0.2501042, 0.2501042], ""properties"": {""magmom"": -0.0}, ""label"": ""S"", ""xyz"": [4.528383633945432, 0.0, 0.8232000168184399]}]}",LiHoS2,166,1.9631000000000003,0.0,0.0110869171716035,0.0189316379702839,0.0073578527600163
mp-999288,"{""@module"": ""pymatgen.core.structure"", ""@class"": ""Structure"", ""charge"": 0, ""lattice"": {""matrix"": [[-2.30499602, -3.99236948, -1e-08], [-4.609991, -1e-08, -0.0], [-2.30499602, -1.33079052, -8.12031262]], ""pbc"": [true, true, true], ""a"": 4.6099914009736835, ""b"": 4.609991, ""c"": 8.54537811374482, ""alpha"": 74.35144269049219, ""beta"": 74.35143914865276, ""gamma"": 59.99999529027783, ""volume"": 149.45262691248027}, ""properties"": {}, ""sites"": [{""species"": [{""element"": ""Pr"", ""occu"": 1}], ""abc"": [-0.0, 0.0, 0.0], ""properties"": {""magmom"": 0.0}, ""label"": ""Pr"", ""xyz"": [0.0, 0.0, 0.0]}, {""species"": [{""element"": ""Tl"", ""occu"": 1}], ""abc"": [0.5, 0.5, 0.5], ""properties"": {""magmom"": 0.0}, ""label"": ""Tl"", ""xyz"": [-4.6099915199999995, -2.661580005, -4.060156315]}, {""species"": [{""element"": ""Te"", ""occu"": 1}], ""abc"": [0.74092738, 0.74092738, 0.77721786], ""properties"": {""magmom"": -0.0}, ""label"": ""Te"", ""xyz"": [-6.914987289435524, -3.9923700262803234, -6.311252004456668]}, {""species"": [{""element"": ""Te"", ""occu"": 1}], ""abc"": [0.25907262000000003, 0.25907262000000003, 0.22278214000000002], ""properties"": {""magmom"": -0.0}, ""label"": ""Te"", ""xyz"": [-2.3049957505644754, -1.3307899837196768, -1.8090606255433332]}]}",PrTlTe2,166,0.6524999999999999,0.0,0.0470776454575534,0.1341267289773923,0.026937852940665
mp-19734,"{""@module"": ""pymatgen.core.structure"", ""@class"": ""Structure"", ""charge"": 0, ""lattice"": {""matrix"": [[4.60629554, 0.062239260000000005, 3.16693647], [1.69868445, 4.28209243, 3.166934], [0.09032921000000001, 0.06224308, 5.58921157]], ""pbc"": [true, true, true], ""a"": 5.59028791139824, ""b"": 5.590287595472267, ""c"": 5.5902879658751905, ""alpha"": 54.56099888334821, ""beta"": 54.56100262874971, ""gamma"": 54.56099836816107, ""volume"": 107.8736429131504}, ""properties"": {}, ""sites"": [{""species"": [{""element"": ""Mg"", ""occu"": 1}], ""abc"": [-0.0, 0.0, 0.0], ""properties"": {""magmom"": 0.0}, ""label"": ""Mg"", ""xyz"": [0.0, 0.0, 0.0]}, {""species"": [{""element"": ""Pb"", ""occu"": 1}], ""abc"": [0.5, 0.5, 0.5], ""properties"": {""magmom"": -0.0}, ""label"": ""Pb"", ""xyz"": [3.1976546, 2.203287385, 5.96154102]}, {""species"": [{""element"": ""F"", ""occu"": 1}], ""abc"": [0.38401557000000003, 0.10179274, 0.75849426], ""properties"": {""magmom"": 0.0}, ""label"": ""F"", ""xyz"": [2.0103171392377854, 0.5069977851929572, 5.777908696710586]}, {""species"": [{""element"": ""F"", ""occu"": 1}], ""abc"": [0.10179274, 0.75849426, 0.38401557000000003], ""properties"": {""magmom"": 0.0}, ""label"": ""F"", ""xyz"": [1.7920176722084362, 3.2781803456001795, 4.870816668390213]}, {""species"": [{""element"": ""F"", ""occu"": 1}], ""abc"": [0.24150574, 0.61598443, 0.8982072600000001], ""properties"": {""magmom"": 0.0}, ""label"": ""F"", ""xyz"": [2.2399443379415773, 2.708640589584978, 7.735885780407957]}, {""species"": [{""element"": ""F"", ""occu"": 1}], ""abc"": [0.8982072600000001, 0.24150574, 0.61598443], ""properties"": {""magmom"": 0.0}, ""label"": ""F"", ""xyz"": [4.603291527791565, 1.12839442439982, 7.052265371609788]}, {""species"": [{""element"": ""F"", ""occu"": 1}], ""abc"": [0.61598443, 0.8982072600000001, 0.24150574], ""properties"": {""magmom"": 0.0}, ""label"": ""F"", ""xyz"": [4.384992060762215, 3.8995769848070427, 6.1451733432894144]}, {""species"": [{""element"": ""F"", ""occu"": 1}], ""abc"": [0.75849426, 0.38401557000000003, 0.10179274], ""properties"": {""magmom"": 0.0}, ""label"": ""F"", ""xyz"": [4.1553648620584225, 1.6979341804150219, 4.187196259592044]}]}",MgPbF6,148,3.0703,0.0,0.0028431710199853,0.0046201592283392,0.0018875036089449