id,structure_json,formula,spacegroup,bandgap,energy_above_hull,k_1064,k_755,k_1500
mp-8818,"{""@module"": ""pymatgen.core.structure"", ""@class"": ""Structure"", ""charge"": 0, ""lattice"": {""matrix"": [[3.45379336, 0.0, -0.9407793], [-0.25625898, 3.44427405, -0.9407793], [-0.01162982, -0.01252767, 6.76748584]], ""pbc"": [true, true, true], ""a"": 3.5796304648508874, ""b"": 3.579630998810148, ""c"": 6.767507428132559, ""alpha"": 105.33557502916834, ""beta"": 105.33557372422896, ""gamma"": 89.99999942880147, ""volume"": 80.42332148235616}, ""properties"": {}, ""sites"": [{""species"": [{""element"": ""Ca"", ""occu"": 1}], ""abc"": [0.66285743, 0.66285743, 0.32571485], ""properties"": {""magmom"": 0.0}, ""label"": ""Ca"", ""xyz"": [2.1157214163866165, 2.278982196843792, 0.957065537262326]}, {""species"": [{""element"": ""Ca"", ""occu"": 1}], ""abc"": [0.33714257000000003, 0.33714257000000003, 0.67428515], ""properties"": {""magmom"": 0.0}, ""label"": ""Ca"", ""xyz"": [1.0701831436133837, 1.152764183156208, 3.9288617027376738]}, {""species"": [{""element"": ""Zn"", ""occu"": 1}], ""abc"": [-0.0, 0.0, 0.0], ""properties"": {""magmom"": 0.0}, ""label"": ""Zn"", ""xyz"": [0.0, 0.0, 0.0]}, {""species"": [{""element"": ""N"", ""occu"": 1}], ""abc"": [0.85432864, 0.85432864, 0.70865829], ""properties"": {""magmom"": -0.0}, ""label"": ""N"", ""xyz"": [2.7235036298644357, 2.933664127723908, 3.18836554315531]}, {""species"": [{""element"": ""N"", ""occu"": 1}], ""abc"": [0.14567136, 0.14567136, 0.29134171000000003], ""properties"": {""magmom"": -0.0}, ""label"": ""N"", ""xyz"": [0.4624009301355646, 0.4980822522760923, 1.6975616968446907]}]}",Ca2ZnN2,139,0.7590000000000003,0.0,0.0358100472899377,0.1392696933317997,0.017377333413974
mp-7375,"{""@module"": ""pymatgen.core.structure"", ""@class"": ""Structure"", ""charge"": 0, ""lattice"": {""matrix"": [[4.04990532, -0.00069994, 0.01223272], [0.01219435, 4.04988704, 0.01223272], [-0.00070275, -0.00069994, 4.04992462]], ""pbc"": [true, true, true], ""a"": 4.049923854879114, ""b"": 4.0499238731574305, ""c"": 4.0499247414557855, ""alpha"": 89.83687109964886, ""beta"": 89.83687925054527, ""gamma"": 89.83686205811088, ""volume"": 66.42558683114699}, ""properties"": {}, ""sites"": [{""species"": [{""element"": ""K"", ""occu"": 1}], ""abc"": [0.01326228, 0.01326228, 0.01326228], ""properties"": {""magmom"": 0.0}, ""label"": ""K"", ""xyz"": [0.053863383144177594, 0.053692170292324794, 0.054035701804936796]}, {""species"": [{""element"": ""Nb"", ""occu"": 1}], ""abc"": [0.50305267, 0.50305267, 0.50305267], ""properties"": {""magmom"": -0.0}, ""label"": ""Nb"", ""xyz"": [2.043096564535776, 2.0366022752987174, 2.0496327983044598]}, {""species"": [{""element"": ""O"", ""occu"": 1}], ""abc"": [0.03114225, 0.5295219, 0.5295219], ""properties"": {""magmom"": 0.0}, ""label"": ""O"", ""xyz"": [0.13220821781780998, 2.1441114489410245, 2.1513822272001657]}, {""species"": [{""element"": ""O"", ""occu"": 1}], ""abc"": [0.5295219, 0.5295219, 0.03114225], ""properties"": {""magmom"": 0.0}, ""label"": ""O"", ""xyz"": [2.150948850031585, 2.1441114489410245, 0.13907875127033098]}, {""species"": [{""element"": ""O"", ""occu"": 1}], ""abc"": [0.5295219, 0.03114225, 0.5295219], ""properties"": {""magmom"": 0.0}, ""label"": ""O"", ""xyz"": [2.14452119784757, 0.125381327554068, 2.1513822272001657]}]}",KNbO3,160,2.3252,0.0,0.009928603929223,0.0165700198690604,0.0063352549501032
mp-753920,"{""@module"": ""pymatgen.core.structure"", ""@class"": ""Structure"", ""charge"": 0, ""lattice"": {""matrix"": [[3.75543439, 8.15e-06, -1.009999999999998e-06], [-1.87771006, 3.25229916, 3.19e-06], [-1e-08, 8.210000000000001e-06, 6.69870231]], ""pbc"": [true, true, true], ""a"": 3.7554343900089795, ""b"": 3.7554287232714305, ""c"": 6.6987023100050305, ""alpha"": 89.99989047372962, ""beta"": 90.0000154947128, ""gamma"": 119.99979987540148, ""volume"": 81.81668674195456}, ""properties"": {}, ""sites"": [{""species"": [{""element"": ""Tm"", ""occu"": 1}], ""abc"": [0.33332394, 0.66667029, 0.292400999999999], ""properties"": {""magmom"": 0.0}, ""label"": ""Tm"", ""xyz"": [-3.7325873830950415e-05, 2.1682163413662776, 1.958709044167349]}, {""species"": [{""element"": ""Tm"", ""occu"": 1}], ""abc"": [0.66665765, 0.33332971, 0.707598], ""properties"": {""magmom"": 0.0}, ""label"": ""Tm"", ""xyz"": [1.8776925083267209, 1.0840991784754712, 4.739988747148928]}, {""species"": [{""element"": ""Se"", ""occu"": 1}], ""abc"": [0.99982019, -0.0, 0.0], ""properties"": {""magmom"": -0.0}, ""label"": ""Se"", ""xyz"": [3.7547591253423342, 8.1485345485e-06, -1.0098183918999979e-06]}, {""species"": [{""element"": ""O"", ""occu"": 1}], ""abc"": [0.33333016, 0.6666651100000001, 0.62522644], ""properties"": {""magmom"": -0.0}, ""label"": ""O"", ""xyz"": [-4.243862068791696e-06, 2.1682022270041843, 4.188207587899316]}, {""species"": [{""element"": ""O"", ""occu"": 1}], ""abc"": [0.66666706, 0.33333489, 0.37477356], ""properties"": {""magmom"": -0.0}, ""label"": ""O"", ""xyz"": [1.8777181237544645, 1.084113292973159, 2.510496902103492]}]}",Tm2SeO2,164,2.1309,0.0,0.0061794167459069,0.0094947331169732,0.0042265261975386
mp-13907,"{""@module"": ""pymatgen.core.structure"", ""@class"": ""Structure"", ""charge"": 0, ""lattice"": {""matrix"": [[4.74576009, 0.07038897, 3.34377341], [1.77210252, 4.40305283, 3.34376811], [0.10256082, 0.07039748, 5.8045274]], ""pbc"": [true, true, true], ""a"": 5.8058603200867225, ""b"": 5.805859689883517, ""c"": 5.8058602174303315, ""alpha"": 53.81566130415395, ""beta"": 53.81565973479281, ""gamma"": 53.815668491679475, ""volume"": 118.38057395056195}, ""properties"": {}, ""sites"": [{""species"": [{""element"": ""Cd"", ""occu"": 1}], ""abc"": [0.5, 0.5, 0.5], ""properties"": {""magmom"": -0.0}, ""label"": ""Cd"", ""xyz"": [3.310211715, 2.2719196399999997, 6.24603446]}, {""species"": [{""element"": ""Sn"", ""occu"": 1}], ""abc"": [-0.0, 0.0, 0.0], ""properties"": {""magmom"": -0.0}, ""label"": ""Sn"", ""xyz"": [0.0, 0.0, 0.0]}, {""species"": [{""element"": ""F"", ""occu"": 1}], ""abc"": [0.23206133, 0.91454072, 0.62012287], ""properties"": {""magmom"": 0.0}, ""label"": ""F"", ""xyz"": [2.785567622948887, 4.086760750680136, 7.433492789857311]}, {""species"": [{""element"": ""F"", ""occu"": 1}], ""abc"": [0.91454072, 0.62012287, 0.23206133], ""properties"": {""magmom"": 0.0}, ""label"": ""F"", ""xyz"": [5.462912550587587, 2.8111438698425286, 6.478570367351372]}, {""species"": [{""element"": ""F"", ""occu"": 1}], ""abc"": [0.37987713, 0.76793867, 0.08545928], ""properties"": {""magmom"": 0.0}, ""label"": ""F"", ""xyz"": [3.1724365488035997, 3.4140298120718064, 4.334082613887199]}, {""species"": [{""element"": ""F"", ""occu"": 1}], ""abc"": [0.08545928, 0.37987713, 0.76793867], ""properties"": {""magmom"": 0.0}, ""label"": ""F"", ""xyz"": [1.1575108794124123, 1.732695410157471, 6.013498552648627]}, {""species"": [{""element"": ""F"", ""occu"": 1}], ""abc"": [0.76793867, 0.08545928, 0.37987713], ""properties"": {""magmom"": 0.0}, ""label"": ""F"", ""xyz"": [3.834855807051113, 0.45707852931986476, 5.058576130142687]}, {""species"": [{""element"": ""F"", ""occu"": 1}], ""abc"": [0.62012287, 0.23206133, 0.91454072], ""properties"": {""magmom"": 0.0}, ""label"": ""F"", ""xyz"": [3.4479868811964, 1.1298094679281934, 8.1579863061128]}]}",CdSnF6,148,3.8682,0.0,0.001255198680658,0.0018737149470444,0.000860788598755
mp-34857,"{""@module"": ""pymatgen.core.structure"", ""@class"": ""Structure"", ""charge"": 0.0, ""lattice"": {""matrix"": [[2.871564793040862, 3.498912285576701, 0.19278326776058002], [-2.871564793040862, 3.498912285576701, 0.19278326776058002], [0.0, 1.7062773050797961, 3.684468250540395]], ""pbc"": [true, true, true], ""a"": 4.530500737349, ""b"": 4.530500737349, ""c"": 4.0603803431538985, ""alpha"": 68.7059836924054, ""beta"": 68.7059836924054, ""gamma"": 78.66644194133127, ""volume"": 72.14915382317953}, ""properties"": {}, ""sites"": [{""species"": [{""element"": ""K"", ""occu"": 1}], ""abc"": [0.011115454210667002, 0.011115454210667002, 0.9682860965505781], ""properties"": {""magmom"": 0.0}, ""label"": ""K"", ""xyz"": [0.0, 1.7299485899634917, 3.571905127351047]}, {""species"": [{""element"": ""N"", ""occu"": 1}], ""abc"": [0.484418860009434, 0.484418860009434, 0.542328928126956], ""properties"": {""magmom"": 0.0}, ""label"": ""N"", ""xyz"": [0.0, 4.315241743255415, 2.1849694186283206]}, {""species"": [{""element"": ""O"", ""occu"": 1}], ""abc"": [0.40051730286048504, 0.772245382919415, 0.39779398766123103], ""properties"": {""magmom"": -0.0}, ""label"": ""O"", ""xyz"": [-1.0674412672818983, 4.782140622584771, 1.691748340665987]}, {""species"": [{""element"": ""O"", ""occu"": 1}], ""abc"": [0.772245382919415, 0.40051730286048504, 0.39779398766123103], ""properties"": {""magmom"": -0.0}, ""label"": ""O"", ""xyz"": [1.0674412672818983, 4.782140622584771, 1.691748340665987]}]}",KNO2,8,2.4646,0.0004185625,0.002260349548609,0.0037431133458897,0.001565715520362
mp-1182061,"{""@module"": ""pymatgen.core.structure"", ""@class"": ""Structure"", ""charge"": 0, ""lattice"": {""matrix"": [[-3.922549, -3.922549, 0.0], [-3.922549, 0.0, -3.922549], [0.0, -3.922549, -3.922549]], ""pbc"": [true, true, true], ""a"": 5.5473219948730215, ""b"": 5.5473219948730215, ""c"": 5.5473219948730215, ""alpha"": 60.00000000000001, ""beta"": 60.00000000000001, ""gamma"": 60.00000000000001, ""volume"": 120.70774257359527}, ""properties"": {}, ""sites"": [{""species"": [{""element"": ""Ba"", ""occu"": 1}], ""abc"": [0.25, 0.25, 0.25], ""properties"": {""magmom"": -0.0}, ""label"": ""Ba"", ""xyz"": [-1.9612745, -1.9612745, -1.9612745]}, {""species"": [{""element"": ""Na"", ""occu"": 1}], ""abc"": [0.75, 0.75, 0.75], ""properties"": {""magmom"": -0.0}, ""label"": ""Na"", ""xyz"": [-5.8838235, -5.8838235, -5.8838235]}, {""species"": [{""element"": ""H"", ""occu"": 1}], ""abc"": [0.784972999999999, 0.784972999999999, 0.215027], ""properties"": {""magmom"": -0.0}, ""label"": ""H"", ""xyz"": [-6.158190112353992, -3.922548999999996, -3.922548999999996]}, {""species"": [{""element"": ""H"", ""occu"": 1}], ""abc"": [0.784972999999999, 0.215027, 0.784972999999999], ""properties"": {""magmom"": -0.0}, ""label"": ""H"", ""xyz"": [-3.922548999999996, -6.158190112353992, -3.922548999999996]}, {""species"": [{""element"": ""H"", ""occu"": 1}], ""abc"": [0.784972999999999, 0.215027, 0.215027], ""properties"": {""magmom"": -0.0}, ""label"": ""H"", ""xyz"": [-3.922548999999996, -3.922548999999996, -1.686907887646]}, {""species"": [{""element"": ""H"", ""occu"": 1}], ""abc"": [0.215027, 0.215027, 0.784972999999999], ""properties"": {""magmom"": -0.0}, ""label"": ""H"", ""xyz"": [-1.686907887646, -3.922548999999996, -3.922548999999996]}, {""species"": [{""element"": ""H"", ""occu"": 1}], ""abc"": [0.215027, 0.784972999999999, 0.215027], ""properties"": {""magmom"": -0.0}, ""label"": ""H"", ""xyz"": [-3.922548999999996, -1.686907887646, -3.922548999999996]}, {""species"": [{""element"": ""H"", ""occu"": 1}], ""abc"": [0.215027, 0.784972999999999, 0.784972999999999], ""properties"": {""magmom"": -0.0}, ""label"": ""H"", ""xyz"": [-3.922548999999996, -3.922548999999996, -6.158190112353992]}, {""species"": [{""element"": ""Ir"", ""occu"": 1}], ""abc"": [0.0, 0.0, 0.0], ""properties"": {""magmom"": -0.0}, ""label"": ""Ir"", ""xyz"": [0.0, 0.0, 0.0]}]}",BaNaH6Ir,216,3.196,0.0,0.0045223648200201,0.0068309307375662,0.0030750481665293
mp-1007908,"{""@module"": ""pymatgen.core.structure"", ""@class"": ""Structure"", ""charge"": 0, ""lattice"": {""matrix"": [[-2.22092566, -3.84675648, 0.0], [-4.44185236, 1e-08, 0.0], [-2.22092566, -1.28225181, -8.14889073]], ""pbc"": [true, true, true], ""a"": 4.44185166385241, ""b"": 4.44185236, ""c"": 8.542897671222256, ""alpha"": 74.93151964592238, ""beta"": 74.93152133311455, ""gamma"": 60.00000268975748, ""volume"": 139.2378498348835}, ""properties"": {}, ""sites"": [{""species"": [{""element"": ""Dy"", ""occu"": 1}], ""abc"": [0.0, 0.0, -0.0], ""properties"": {""magmom"": -0.0}, ""label"": ""Dy"", ""xyz"": [0.0, 0.0, 0.0]}, {""species"": [{""element"": ""Tl"", ""occu"": 1}], ""abc"": [0.5, 0.5, 0.5], ""properties"": {""magmom"": 0.0}, ""label"": ""Tl"", ""xyz"": [-4.44185184, -2.56450414, -4.074445365]}, {""species"": [{""element"": ""Te"", ""occu"": 1}], ""abc"": [0.7375729, 0.7375729, 0.7872813], ""properties"": {""magmom"": 0.0}, ""label"": ""Te"", ""xyz"": [-6.662777747075815, -3.846756197075816, -6.415469287472349]}, {""species"": [{""element"": ""Te"", ""occu"": 1}], ""abc"": [0.262427099999999, 0.262427099999999, 0.212718699999999], ""properties"": {""magmom"": 0.0}, ""label"": ""Te"", ""xyz"": [-2.2209259329241755, -1.2822520829241788, -1.7334214425276429]}]}",DyTlTe2,166,0.6347999999999994,0.0,0.0394547232534652,0.091193997080104,0.0240462875709601
mp-554310,"{""@module"": ""pymatgen.core.structure"", ""@class"": ""Structure"", ""charge"": 0, ""lattice"": {""matrix"": [[7.50234003, -2.06152318, -0.00084979], [7.50234003, 2.06152318, -0.00084979], [6.93626558, 0.0, 3.5246567]], ""pbc"": [true, true, true], ""a"": 7.7804231549164955, ""b"": 7.7804231549164955, ""c"": 7.780423192162983, ""alpha"": 30.72949457062652, ""beta"": 30.72949457062652, ""gamma"": 30.72949202599274, ""volume"": 109.05073115779541}, ""properties"": {}, ""sites"": [{""species"": [{""element"": ""Tl"", ""occu"": 1}], ""abc"": [0.5, 0.5, 0.5], ""properties"": {""magmom"": 0.0}, ""label"": ""Tl"", ""xyz"": [10.97047282, 0.0, 1.76147856]}, {""species"": [{""element"": ""Bi"", ""occu"": 1}], ""abc"": [0.0, 0.0, 0.0], ""properties"": {""magmom"": -0.0}, ""label"": ""Bi"", ""xyz"": [0.0, 0.0, 0.0]}, {""species"": [{""element"": ""S"", ""occu"": 1}], ""abc"": [0.73688763, 0.73688763, 0.73688763], ""properties"": {""magmom"": -0.0}, ""label"": ""S"", ""xyz"": [16.16801143261843, 0.0, 2.5960235227484256]}, {""species"": [{""element"": ""S"", ""occu"": 1}], ""abc"": [0.26311237, 0.26311237, 0.26311237], ""properties"": {""magmom"": -0.0}, ""label"": ""S"", ""xyz"": [5.772934207381566, 0.0, 0.9269335972515743]}]}",TlBiS2,166,0.4667000000000003,0.0,0.2606440896779216,0.5027279465498607,0.0760505355920733
mp-1017628,"{""@module"": ""pymatgen.core.structure"", ""@class"": ""Structure"", ""charge"": 0, ""lattice"": {""matrix"": [[3.6463336, 1.2780000000000001e-05, 8.795000000000002e-05], [-1.823156019999999, 3.15787123, -3.396e-05], [0.0001489, 1.827e-05, 6.20867788]], ""pbc"": [true, true, true], ""a"": 3.6463336010830787, ""b"": 3.6463747173977104, ""c"": 6.208677881812383, ""alpha"": 90.00107463996012, ""beta"": 89.99724391883076, ""gamma"": 119.99923058513781, ""volume"": 71.49090960442201}, ""properties"": {}, ""sites"": [{""species"": [{""element"": ""Mg"", ""occu"": 1}], ""abc"": [0.0, -0.0, -0.0], ""properties"": {""magmom"": 0.0}, ""label"": ""Mg"", ""xyz"": [0.0, 0.0, 0.0]}, {""species"": [{""element"": ""Be"", ""occu"": 1}], ""abc"": [0.66660368, 0.33330598, 0.37410208], ""properties"": {""magmom"": -0.0}, ""label"": ""Be"", ""xyz"": [1.823046296128361, 1.0525527190689872, 2.3227266176805657]}, {""species"": [{""element"": ""Be"", ""occu"": 1}], ""abc"": [0.33339632, 0.66669402, 0.62589792], ""properties"": {""magmom"": -0.0}, ""label"": ""Be"", ""xyz"": [0.0002801838716405009, 2.1053495609310127, 3.886005252319434]}, {""species"": [{""element"": ""P"", ""occu"": 1}], ""abc"": [0.6667017, 0.33334901, 0.7328395400000001], ""properties"": {""magmom"": 0.0}, ""label"": ""P"", ""xyz"": [1.8233786753520864, 1.0526951576541042, 4.55001195746951]}, {""species"": [{""element"": ""P"", ""occu"": 1}], ""abc"": [0.3332983, 0.66665099, 0.26716046], ""properties"": {""magmom"": 0.0}, ""label"": ""P"", ""xyz"": [-5.219535208518145e-05, 2.105207122345896, 1.6587199125304892]}]}",Mg(BeP)2,164,0.7286000000000001,0.0,0.0188245959944331,0.0305257296204867,0.0116226355979779
mp-552120,"{""@module"": ""pymatgen.core.structure"", ""@class"": ""Structure"", ""charge"": 0, ""lattice"": {""matrix"": [[3.75123878, 0.01857134, 9.02214841], [1.81592894, 3.28245874, 9.02214841], [0.03132033, 0.01857135, 9.77087398]], ""pbc"": [true, true, true], ""a"": 9.770941572402878, ""b"": 9.770941368517029, ""c"": 9.770941827232068, ""alpha"": 22.39291382370942, ""beta"": 22.392917123042277, ""gamma"": 22.39291913854778, ""volume"": 118.73548931228211}, ""properties"": {}, ""sites"": [{""species"": [{""element"": ""Y"", ""occu"": 1}], ""abc"": [0.7166341700000001, 0.7166341700000001, 0.7166341700000001], ""properties"": {""magmom"": 0.0}, ""label"": ""Y"", ""xyz"": [4.0120678369666685, 2.378939815518863, 19.933301839666235]}, {""species"": [{""element"": ""Y"", ""occu"": 1}], ""abc"": [0.28336583, 0.28336583, 0.28336583], ""properties"": {""magmom"": 0.0}, ""label"": ""Y"", ""xyz"": [1.5864202130333316, 0.9406616144811369, 7.8818689603337635]}, {""species"": [{""element"": ""Cl"", ""occu"": 1}], ""abc"": [0.889485099999999, 0.889485099999999, 0.889485099999999], ""properties"": {""magmom"": -0.0}, ""label"": ""Cl"", ""xyz"": [4.97977170300305, 2.95273600992369, 24.741179980555053]}, {""species"": [{""element"": ""Cl"", ""occu"": 1}], ""abc"": [0.1105159, 0.1105159, 0.1105159], ""properties"": {""magmom"": -0.0}, ""label"": ""Cl"", ""xyz"": [0.618721945484995, 0.36686873967773703, 3.0740186346157197]}, {""species"": [{""element"": ""O"", ""occu"": 1}], ""abc"": [0.36301879, 0.36301879, 0.36301879], ""properties"": {""magmom"": -0.0}, ""label"": ""O"", ""xyz"": [2.0323563577404595, 1.2050776944008696, 10.09742964745933]}, {""species"": [{""element"": ""O"", ""occu"": 1}], ""abc"": [0.63698121, 0.63698121, 0.63698121], ""properties"": {""magmom"": -0.0}, ""label"": ""O"", ""xyz"": [3.5661316922595403, 2.11452373559913, 17.71774115254067]}]}",YClO,166,4.3099,0.0,0.0022925167318777,0.0034311587493829,0.0015963125420171
mp-1519,"{""@module"": ""pymatgen.core.structure"", ""@class"": ""Structure"", ""charge"": 0, ""lattice"": {""matrix"": [[3.91410578, 1e-08, 2.25981139], [1.30470193, 3.69025514, 2.25981139], [2e-08, 1e-08, 4.51962073]], ""pbc"": [true, true, true], ""a"": 4.519620733579659, ""b"": 4.519621404809907, ""c"": 4.51962073, ""alpha"": 59.999989730757974, ""beta"": 59.99998476842091, ""gamma"": 59.99999476569092, ""volume"": 65.28162287945732}, ""properties"": {}, ""sites"": [{""species"": [{""element"": ""Ca"", ""occu"": 1}], ""abc"": [0.0, -0.0, 0.0], ""properties"": {""magmom"": 0.0}, ""label"": ""Ca"", ""xyz"": [0.0, 0.0, 0.0]}, {""species"": [{""element"": ""Te"", ""occu"": 1}], ""abc"": [0.5, 0.5, 0.5], ""properties"": {""magmom"": 0.0}, ""label"": ""Te"", ""xyz"": [2.609403865, 1.84512758, 4.519621754999999]}]}",CaTe,225,1.5763999999999996,0.0,0.0173337706059831,0.0302372858474992,0.0109913566475552