id,structure_json,formula,spacegroup,bandgap,energy_above_hull,k_1064,k_755,k_1500
mp-4124,"{""@module"": ""pymatgen.core.structure"", ""@class"": ""Structure"", ""charge"": 0, ""lattice"": {""matrix"": [[3.471156, 0.00205051, 4.10959596], [1.50474079, 3.12804929, 4.10959596], [0.0032588400000000003, 0.0020505, 5.379378]], ""pbc"": [true, true, true], ""a"": 5.379377950597595, ""b"": 5.379378789433558, ""c"": 5.379379377908979, ""alpha"": 40.15128508925448, ""beta"": 40.151279497367554, ""gamma"": 40.15128180224049, ""volume"": 58.33396811997632}, ""properties"": {}, ""sites"": [{""species"": [{""element"": ""Ca"", ""occu"": 1}], ""abc"": [-0.0, 0.0, 0.0], ""properties"": {""magmom"": 0.0}, ""label"": ""Ca"", ""xyz"": [0.0, 0.0, 0.0]}, {""species"": [{""element"": ""C"", ""occu"": 1}], ""abc"": [0.5, 0.5, 0.5], ""properties"": {""magmom"": -0.0}, ""label"": ""C"", ""xyz"": [2.489577815, 1.56607515, 6.79928496]}, {""species"": [{""element"": ""N"", ""occu"": 1}], ""abc"": [0.41697199, 0.41697199, 0.41697199], ""properties"": {""magmom"": -0.0}, ""label"": ""N"", ""xyz"": [2.076168431560804, 1.306018943570097, 5.670222760696541]}, {""species"": [{""element"": ""N"", ""occu"": 1}], ""abc"": [0.58302801, 0.58302801, 0.58302801], ""properties"": {""magmom"": -0.0}, ""label"": ""N"", ""xyz"": [2.9029871984391966, 1.826131356429903, 7.92834715930346]}]}",CaCN2,166,3.616,0.0,0.0034599195311895,0.0053138128056827,0.0023887286789934
mp-24084,"{""@module"": ""pymatgen.core.structure"", ""@class"": ""Structure"", ""charge"": 0, ""lattice"": {""matrix"": [[3.4736816, -0.0, 2.0055299], [1.15789387, 3.27501819, 2.0055299], [-0.0, -0.0, 4.01106081]], ""pbc"": [true, true, true], ""a"": 4.01106146025869, ""b"": 4.011061273379959, ""c"": 4.01106081, ""alpha"": 60.00001215115163, ""beta"": 60.00001369236351, ""gamma"": 60.000007539413694, ""volume"": 45.63131357684779}, ""properties"": {}, ""sites"": [{""species"": [{""element"": ""K"", ""occu"": 1}], ""abc"": [0.0, -0.0, -0.0], ""properties"": {""magmom"": 0.0}, ""label"": ""K"", ""xyz"": [0.0, 0.0, 0.0]}, {""species"": [{""element"": ""H"", ""occu"": 1}], ""abc"": [0.5, 0.5, 0.5], ""properties"": {""magmom"": 0.0}, ""label"": ""H"", ""xyz"": [2.315787735, 1.637509095, 4.011060305]}]}",KH,225,3.4311,0.0,0.0042392433152261,0.0068412444077711,0.0029045952209682
mp-754158,"{""@module"": ""pymatgen.core.structure"", ""@class"": ""Structure"", ""charge"": 0, ""lattice"": {""matrix"": [[6.32032156, -1.81107524, -0.00229558], [6.32032156, 1.81107524, -0.00229558], [5.80248536, -0.0, 3.09154149]], ""pbc"": [true, true, true], ""a"": 6.5746835221499005, ""b"": 6.5746835221499005, ""c"": 6.574683653028924, ""alpha"": 31.979093887125643, ""beta"": 31.979093887125643, ""gamma"": 31.979092248151186, ""volume"": 70.82338820268758}, ""properties"": {}, ""sites"": [{""species"": [{""element"": ""K"", ""occu"": 1}], ""abc"": [-0.0, 0.0, -0.0], ""properties"": {""magmom"": 0.0}, ""label"": ""K"", ""xyz"": [0.0, 0.0, 0.0]}, {""species"": [{""element"": ""Nd"", ""occu"": 1}], ""abc"": [0.5, 0.5, 0.5], ""properties"": {""magmom"": -0.0}, ""label"": ""Nd"", ""xyz"": [9.22156424, 0.0, 1.543475165]}, {""species"": [{""element"": ""O"", ""occu"": 1}], ""abc"": [0.231046199999999, 0.231046199999999, 0.231046199999999], ""properties"": {""magmom"": 0.0}, ""label"": ""O"", ""xyz"": [4.261214751415758, 0.0, 0.713228143335243]}, {""species"": [{""element"": ""O"", ""occu"": 1}], ""abc"": [0.7689538, 0.7689538, 0.7689538], ""properties"": {""magmom"": 0.0}, ""label"": ""O"", ""xyz"": [14.181913728584226, 0.0, 2.373722186664754]}]}",KNdO2,166,3.7389,0.0,0.0035282742769114,0.0054336640066541,0.0023340408785066
mp-1018736,"{""@module"": ""pymatgen.core.structure"", ""@class"": ""Structure"", ""charge"": 0, ""lattice"": {""matrix"": [[4.5766098, 0.0, 0.0], [0.0, 4.5766098, -0.0], [0.0, 0.0, 7.91696195]], ""pbc"": [true, true, true], ""a"": 4.5766098, ""b"": 4.5766098, ""c"": 7.91696195, ""alpha"": 90.0, ""beta"": 90.0, ""gamma"": 90.0, ""volume"": 165.82359646810366}, ""properties"": {}, ""sites"": [{""species"": [{""element"": ""K"", ""occu"": 1}], ""abc"": [0.75, 0.75, 0.34847705], ""properties"": {""magmom"": 0.0}, ""label"": ""K"", ""xyz"": [3.43245735, 3.43245735, 2.7588795452982477]}, {""species"": [{""element"": ""K"", ""occu"": 1}], ""abc"": [0.25, 0.25, 0.65152295], ""properties"": {""magmom"": 0.0}, ""label"": ""K"", ""xyz"": [1.14415245, 1.14415245, 5.158082404701753]}, {""species"": [{""element"": ""Cd"", ""occu"": 1}], ""abc"": [0.75, 0.25, 0.0], ""properties"": {""magmom"": -0.0}, ""label"": ""Cd"", ""xyz"": [3.43245735, 1.14415245, 0.0]}, {""species"": [{""element"": ""Cd"", ""occu"": 1}], ""abc"": [0.25, 0.75, 0.0], ""properties"": {""magmom"": -0.0}, ""label"": ""Cd"", ""xyz"": [1.14415245, 3.43245735, 0.0]}, {""species"": [{""element"": ""As"", ""occu"": 1}], ""abc"": [0.75, 0.75, 0.79366061], ""properties"": {""magmom"": -0.0}, ""label"": ""As"", ""xyz"": [3.43245735, 3.43245735, 6.283380850583789]}, {""species"": [{""element"": ""As"", ""occu"": 1}], ""abc"": [0.25, 0.25, 0.20633939], ""properties"": {""magmom"": -0.0}, ""label"": ""As"", ""xyz"": [1.14415245, 1.14415245, 1.6335810994162105]}]}",KCdAs,129,0.1906999999999998,0.0,0.4643356958163728,0.6976794065159604,0.5316536917225001
mp-9036,"{""@module"": ""pymatgen.core.structure"", ""@class"": ""Structure"", ""charge"": 0, ""lattice"": {""matrix"": [[8.27981229, -2.2858621, -0.01306737], [8.27981229, 2.2858621, -0.01306737], [7.65491004, 0.0, 3.89653452]], ""pbc"": [true, true, true], ""a"": 8.589565056160305, ""b"": 8.589565056160305, ""c"": 8.589565122056205, ""alpha"": 30.867120218602743, ""beta"": 30.867120218602743, ""gamma"": 30.867125531954894, ""volume"": 147.95289964826867}, ""properties"": {}, ""sites"": [{""species"": [{""element"": ""K"", ""occu"": 1}], ""abc"": [0.0, 0.0, -0.0], ""properties"": {""magmom"": -0.0}, ""label"": ""K"", ""xyz"": [0.0, 0.0, 0.0]}, {""species"": [{""element"": ""Sm"", ""occu"": 1}], ""abc"": [0.5, 0.5, 0.5], ""properties"": {""magmom"": -0.0}, ""label"": ""Sm"", ""xyz"": [12.107267310000001, 0.0, 1.93519989]}, {""species"": [{""element"": ""Te"", ""occu"": 1}], ""abc"": [0.23785114000000002, 0.23785114000000002, 0.23785114000000002], ""properties"": {""magmom"": -0.0}, ""label"": ""Te"", ""xyz"": [5.759454663936467, 0.0, 0.9205789999287493]}, {""species"": [{""element"": ""Te"", ""occu"": 1}], ""abc"": [0.76214886, 0.76214886, 0.76214886], ""properties"": {""magmom"": -0.0}, ""label"": ""Te"", ""xyz"": [18.455079956063535, 0.0, 2.949820780071251]}]}",KSmTe2,166,1.2735000000000003,0.0,0.0364006881439451,0.0928406117288677,0.0202082925011363
mp-1078726,"{""@module"": ""pymatgen.core.structure"", ""@class"": ""Structure"", ""charge"": 0, ""lattice"": {""matrix"": [[-2.0287142, -3.51379965, -0.0], [-2.0287142, 3.51379965, 0.0], [0.0, 0.0, -16.10172705]], ""pbc"": [true, true, true], ""a"": 4.05739686074973, ""b"": 4.05739686074973, ""c"": 16.10172705, ""alpha"": 90.0, ""beta"": 90.0, ""gamma"": 119.99948572378382, ""volume"": 229.56216945373188}, ""properties"": {}, ""sites"": [{""species"": [{""element"": ""Cs"", ""occu"": 1}], ""abc"": [0.66667865, 0.33332135, 0.75], ""properties"": {""magmom"": -0.0}, ""label"": ""Cs"", ""xyz"": [-2.0287142, -1.171350764064945, -12.0762952875]}, {""species"": [{""element"": ""Cs"", ""occu"": 1}], ""abc"": [0.33332135, 0.66667865, 0.25], ""properties"": {""magmom"": -0.0}, ""label"": ""Cs"", ""xyz"": [-2.0287142, 1.171350764064945, -4.0254317625]}, {""species"": [{""element"": ""Ho"", ""occu"": 1}], ""abc"": [-0.0, 0.0, 0.5], ""properties"": {""magmom"": 0.0}, ""label"": ""Ho"", ""xyz"": [0.0, 0.0, -8.050863525]}, {""species"": [{""element"": ""Ho"", ""occu"": 1}], ""abc"": [-0.0, 0.0, 0.0], ""properties"": {""magmom"": 0.0}, ""label"": ""Ho"", ""xyz"": [0.0, 0.0, 0.0]}, {""species"": [{""element"": ""S"", ""occu"": 1}], ""abc"": [0.6666654200000001, 0.33333458, 0.09050378], ""properties"": {""magmom"": 0.0}, ""label"": ""S"", ""xyz"": [-2.0287142, -1.1712577889262064, -1.4572671625532492]}, {""species"": [{""element"": ""S"", ""occu"": 1}], ""abc"": [0.33333458, 0.6666654200000001, 0.90949622], ""properties"": {""magmom"": 0.0}, ""label"": ""S"", ""xyz"": [-2.0287142, 1.1712577889262064, -14.644459887446752]}, {""species"": [{""element"": ""S"", ""occu"": 1}], ""abc"": [0.33333458, 0.6666654200000001, 0.59050378], ""properties"": {""magmom"": 0.0}, ""label"": ""S"", ""xyz"": [-2.0287142, 1.1712577889262064, -9.50813068755325]}, {""species"": [{""element"": ""S"", ""occu"": 1}], ""abc"": [0.6666654200000001, 0.33333458, 0.40949622], ""properties"": {""magmom"": 0.0}, ""label"": ""S"", ""xyz"": [-2.0287142, -1.1712577889262064, -6.5935963624467515]}]}",CsHoS2,194,2.2437,0.0,0.0094479513654584,0.0156870816640831,0.0062091193867521
mp-22975,"{""@module"": ""pymatgen.core.structure"", ""@class"": ""Structure"", ""charge"": 0, ""lattice"": {""matrix"": [[6.29855345, -0.0, 3.63647199], [2.09951782, 5.93833433, 3.63647199], [0.0, 0.0, 7.27294397]], ""pbc"": [true, true, true], ""a"": 7.27294328979413, ""b"": 7.272944261123459, ""c"": 7.27294397, ""alpha"": 60.0000012786416, ""beta"": 59.99999686071706, ""gamma"": 60.00000229880919, ""volume"": 272.0293137024736}, ""properties"": {}, ""sites"": [{""species"": [{""element"": ""Rb"", ""occu"": 1}], ""abc"": [0.25, 0.25, 0.25], ""properties"": {""magmom"": 0.0}, ""label"": ""Rb"", ""xyz"": [2.0995178174999998, 1.4845835825, 3.6364719875000002]}, {""species"": [{""element"": ""Rb"", ""occu"": 1}], ""abc"": [0.75, 0.75, 0.75], ""properties"": {""magmom"": 0.0}, ""label"": ""Rb"", ""xyz"": [6.2985534525, 4.4537507475, 10.909415962499999]}, {""species"": [{""element"": ""Te"", ""occu"": 1}], ""abc"": [0.0, 0.0, -0.0], ""properties"": {""magmom"": -0.0}, ""label"": ""Te"", ""xyz"": [0.0, 0.0, 0.0]}, {""species"": [{""element"": ""Cl"", ""occu"": 1}], ""abc"": [0.24773198000000002, 0.75226802, 0.75226802], ""properties"": {""magmom"": 0.0}, ""label"": ""Cl"", ""xyz"": [3.1397532307104474, 4.467219008527127, 9.107675149882839]}, {""species"": [{""element"": ""Cl"", ""occu"": 1}], ""abc"": [0.24773198000000002, 0.75226802, 0.24773198000000002], ""properties"": {""magmom"": 0.0}, ""label"": ""Cl"", ""xyz"": [3.1397532307104474, 4.467219008527127, 5.438212800117161]}, {""species"": [{""element"": ""Cl"", ""occu"": 1}], ""abc"": [0.75226802, 0.24773198000000002, 0.75226802], ""properties"": {""magmom"": 0.0}, ""label"": ""Cl"", ""xyz"": [5.258318039289553, 1.4711153214728736, 9.107675149882839]}, {""species"": [{""element"": ""Cl"", ""occu"": 1}], ""abc"": [0.75226802, 0.24773198000000002, 0.24773198000000002], ""properties"": {""magmom"": 0.0}, ""label"": ""Cl"", ""xyz"": [5.258318039289553, 1.4711153214728736, 5.438212800117161]}, {""species"": [{""element"": ""Cl"", ""occu"": 1}], ""abc"": [0.75226802, 0.75226802, 0.24773198000000002], ""properties"": {""magmom"": 0.0}, ""label"": ""Cl"", ""xyz"": [6.317600446101785, 4.467219008527127, 7.27294397752268]}, {""species"": [{""element"": ""Cl"", ""occu"": 1}], ""abc"": [0.24773198000000002, 0.24773198000000002, 0.75226802], ""properties"": {""magmom"": 0.0}, ""label"": ""Cl"", ""xyz"": [2.0804708238982146, 1.4711153214728736, 7.27294397247732]}]}",Rb2TeCl6,225,2.675,0.0,0.0082574882289349,0.0144914374774612,0.0054581305773891
mp-16236,"{""@module"": ""pymatgen.core.structure"", ""@class"": ""Structure"", ""charge"": 0, ""lattice"": {""matrix"": [[4.51645146, 0.0, 0.0], [-0.0, 4.51645146, 0.0], [-0.0, -0.0, 7.6982129]], ""pbc"": [true, true, true], ""a"": 4.51645146, ""b"": 4.51645146, ""c"": 7.6982129, ""alpha"": 90.0, ""beta"": 90.0, ""gamma"": 90.0, ""volume"": 157.03071632481115}, ""properties"": {}, ""sites"": [{""species"": [{""element"": ""K"", ""occu"": 1}], ""abc"": [0.75, 0.75, 0.33713702], ""properties"": {""magmom"": -0.0}, ""label"": ""K"", ""xyz"": [3.387338595, 3.387338595, 2.595352556431558]}, {""species"": [{""element"": ""K"", ""occu"": 1}], ""abc"": [0.25, 0.25, 0.66286298], ""properties"": {""magmom"": -0.0}, ""label"": ""K"", ""xyz"": [1.129112865, 1.129112865, 5.102860343568442]}, {""species"": [{""element"": ""Ag"", ""occu"": 1}], ""abc"": [0.75, 0.25, -0.0], ""properties"": {""magmom"": -0.0}, ""label"": ""Ag"", ""xyz"": [3.387338595, 1.129112865, 0.0]}, {""species"": [{""element"": ""Ag"", ""occu"": 1}], ""abc"": [0.25, 0.75, -0.0], ""properties"": {""magmom"": -0.0}, ""label"": ""Ag"", ""xyz"": [1.129112865, 3.387338595, 0.0]}, {""species"": [{""element"": ""Se"", ""occu"": 1}], ""abc"": [0.25, 0.25, 0.21701423], ""properties"": {""magmom"": -0.0}, ""label"": ""Se"", ""xyz"": [1.129112865, 1.129112865, 1.670621744869567]}, {""species"": [{""element"": ""Se"", ""occu"": 1}], ""abc"": [0.75, 0.75, 0.78298577], ""properties"": {""magmom"": -0.0}, ""label"": ""Se"", ""xyz"": [3.387338595, 3.387338595, 6.027591155130433]}]}",KAgSe,129,0.4835,0.0,0.3248371650203511,0.4145527872605091,0.2517930796166139
mp-9362,"{""@module"": ""pymatgen.core.structure"", ""@class"": ""Structure"", ""charge"": 0, ""lattice"": {""matrix"": [[7.78318777, -2.12497032, -0.00206002], [7.78318777, 2.12497032, -0.00206002], [7.20398853, 0.0, 3.63263734]], ""pbc"": [true, true, true], ""a"": 8.068055215951418, ""b"": 8.068055215951418, ""c"": 8.068054584863306, ""alpha"": 30.541517366535324, ""beta"": 30.541517366535324, ""gamma"": 30.541516077319073, ""volume"": 120.22376103564005}, ""properties"": {}, ""sites"": [{""species"": [{""element"": ""Rb"", ""occu"": 1}], ""abc"": [-0.0, -0.0, 0.0], ""properties"": {""magmom"": -0.0}, ""label"": ""Rb"", ""xyz"": [0.0, 0.0, 0.0]}, {""species"": [{""element"": ""Pr"", ""occu"": 1}], ""abc"": [0.5, 0.5, 0.5], ""properties"": {""magmom"": 0.0}, ""label"": ""Pr"", ""xyz"": [11.385182035, 0.0, 1.81425865]}, {""species"": [{""element"": ""S"", ""occu"": 1}], ""abc"": [0.76683009, 0.76683009, 0.76683009], ""properties"": {""magmom"": -0.0}, ""label"": ""S"", ""xyz"": [17.46100032913087, 0.0, 2.782456247725557]}, {""species"": [{""element"": ""S"", ""occu"": 1}], ""abc"": [0.23316991, 0.23316991, 0.23316991], ""properties"": {""magmom"": -0.0}, ""label"": ""S"", ""xyz"": [5.309363740869134, 0.0, 0.8460610522744431]}]}",RbPrS2,166,2.2992,0.0,0.0109017171390196,0.0191554641003435,0.0070141232732813
mp-9250,"{""@module"": ""pymatgen.core.structure"", ""@class"": ""Structure"", ""charge"": 0, ""lattice"": {""matrix"": [[4.60204775, -0.0, -0.0], [0.0, 4.60204775, 0.0], [0.0, -0.0, 7.50977297]], ""pbc"": [true, true, true], ""a"": 4.60204775, ""b"": 4.60204775, ""c"": 7.50977297, ""alpha"": 90.0, ""beta"": 90.0, ""gamma"": 90.0, ""volume"": 159.04830640169496}, ""properties"": {}, ""sites"": [{""species"": [{""element"": ""Rb"", ""occu"": 1}], ""abc"": [0.75, 0.75, 0.33915418], ""properties"": {""magmom"": 0.0}, ""label"": ""Rb"", ""xyz"": [3.4515358124999995, 3.4515358124999995, 2.546970893626515]}, {""species"": [{""element"": ""Rb"", ""occu"": 1}], ""abc"": [0.25, 0.25, 0.66084582], ""properties"": {""magmom"": 0.0}, ""label"": ""Rb"", ""xyz"": [1.1505119375, 1.1505119375, 4.962802076373486]}, {""species"": [{""element"": ""Li"", ""occu"": 1}], ""abc"": [0.75, 0.25, -0.0], ""properties"": {""magmom"": -0.0}, ""label"": ""Li"", ""xyz"": [3.4515358124999995, 1.1505119375, 0.0]}, {""species"": [{""element"": ""Li"", ""occu"": 1}], ""abc"": [0.25, 0.75, -0.0], ""properties"": {""magmom"": -0.0}, ""label"": ""Li"", ""xyz"": [1.1505119375, 3.4515358124999995, 0.0]}, {""species"": [{""element"": ""Se"", ""occu"": 1}], ""abc"": [0.25, 0.25, 0.17977322], ""properties"": {""magmom"": -0.0}, ""label"": ""Se"", ""xyz"": [1.1505119375, 1.1505119375, 1.3500560682858636]}, {""species"": [{""element"": ""Se"", ""occu"": 1}], ""abc"": [0.75, 0.75, 0.82022678], ""properties"": {""magmom"": -0.0}, ""label"": ""Se"", ""xyz"": [3.4515358124999995, 3.4515358124999995, 6.1597169017141375]}]}",RbLiSe,129,2.3261000000000003,0.0,0.0082515860089488,0.0139827629898517,0.0053140974454943
mp-1223443,"{""@module"": ""pymatgen.core.structure"", ""@class"": ""Structure"", ""charge"": 0, ""lattice"": {""matrix"": [[7.48852691, -2.062962139999999, -0.00175362], [7.48852691, 2.062962139999999, -0.00175362], [6.92104101, 0.0, 3.52605155]], ""pbc"": [true, true, true], ""a"": 7.767486797417208, ""b"": 7.767486797417208, ""c"": 7.767486607349846, ""alpha"": 30.80396643655359, ""beta"": 30.80396643655359, ""gamma"": 30.803955674033556, ""volume"": 108.99482554424745}, ""properties"": {}, ""sites"": [{""species"": [{""element"": ""K"", ""occu"": 1}], ""abc"": [0.5, 0.5, 0.5], ""properties"": {""magmom"": -0.0}, ""label"": ""K"", ""xyz"": [10.949047414999999, 0.0, 1.7612721550000001]}, {""species"": [{""element"": ""Bi"", ""occu"": 1}], ""abc"": [0.0, 0.0, -0.0], ""properties"": {""magmom"": -0.0}, ""label"": ""Bi"", ""xyz"": [0.0, 0.0, 0.0]}, {""species"": [{""element"": ""S"", ""occu"": 1}], ""abc"": [0.26253338, 0.26253338, 0.26253338], ""properties"": {""magmom"": 0.0}, ""label"": ""S"", ""xyz"": [5.748980851280425, 0.0, 0.9247854639040677]}, {""species"": [{""element"": ""S"", ""occu"": 1}], ""abc"": [0.73746662, 0.73746662, 0.73746662], ""properties"": {""magmom"": 0.0}, ""label"": ""S"", ""xyz"": [16.149113978719573, 0.0, 2.597758846095932]}]}",KBiS2,166,1.4545999999999997,0.0,0.0302154275924064,0.0672965623380399,0.0183995489976328
mp-16037,"{""@module"": ""pymatgen.core.structure"", ""@class"": ""Structure"", ""charge"": 0, ""lattice"": {""matrix"": [[3.74480979, 0.0, -1.12942375], [-0.34063078, 3.72928522, -1.12942375], [0.0097618, 0.010693910000000001, 6.80537674]], ""pbc"": [true, true, true], ""a"": 3.91141897146597, ""b"": 3.911418615727281, ""c"": 6.805392143424459, ""alpha"": 106.70095372408827, ""beta"": 106.70095078249773, ""gamma"": 89.99999802508411, ""volume"": 95.13070243770011}, ""properties"": {}, ""sites"": [{""species"": [{""element"": ""Dy"", ""occu"": 1}], ""abc"": [0.66289957, 0.66289957, 0.32580013], ""properties"": {""magmom"": 0.0}, ""label"": ""Dy"", ""xyz"": [2.2598091976410597, 2.4756256460135635, 0.7198035901454014]}, {""species"": [{""element"": ""Dy"", ""occu"": 1}], ""abc"": [0.33710043, 0.33710043, 0.67419987], ""properties"": {""magmom"": 0.0}, ""label"": ""Dy"", ""xyz"": [1.1541316123589402, 1.2643534839864363, 3.8267256498545987]}, {""species"": [{""element"": ""Te"", ""occu"": 1}], ""abc"": [-0.0, 0.0, -0.0], ""properties"": {""magmom"": 0.0}, ""label"": ""Te"", ""xyz"": [0.0, 0.0, 0.0]}, {""species"": [{""element"": ""O"", ""occu"": 1}], ""abc"": [0.25, 0.75, 0.5], ""properties"": {""magmom"": -0.0}, ""label"": ""O"", ""xyz"": [0.6856102625, 2.80231087, 2.27326462]}, {""species"": [{""element"": ""O"", ""occu"": 1}], ""abc"": [0.75, 0.25, 0.5], ""properties"": {""magmom"": -0.0}, ""label"": ""O"", ""xyz"": [2.7283305475, 0.93766826, 2.27326462]}]}",Dy2TeO2,139,1.0933000000000002,0.0,0.0185730435191404,0.0385061937316158,0.0115186441325417