id,structure_json,formula,spacegroup,bandgap,energy_above_hull,k_1064,k_755,k_1500
mp-19178,"{""@module"": ""pymatgen.core.structure"", ""@class"": ""Structure"", ""charge"": 0, ""lattice"": {""matrix"": [[2.8615215, 1e-08, -0.0], [-1.43075974, 2.47814942, 0.0], [-0.0, 0.0, 12.28569151]], ""pbc"": [true, true, true], ""a"": 2.8615215, ""b"": 2.8615202220937044, ""c"": 12.28569151, ""alpha"": 90.0, ""beta"": 90.0, ""gamma"": 119.99999122102358, ""volume"": 87.12125219781167}, ""properties"": {}, ""sites"": [{""species"": [{""element"": ""Co"", ""occu"": 1}], ""abc"": [0.0, 0.0, 0.0], ""properties"": {""magmom"": -0.0}, ""label"": ""Co"", ""xyz"": [0.0, 0.0, 0.0]}, {""species"": [{""element"": ""Co"", ""occu"": 1}], ""abc"": [0.0, 0.0, 0.5], ""properties"": {""magmom"": -0.0}, ""label"": ""Co"", ""xyz"": [0.0, 0.0, 6.142845755]}, {""species"": [{""element"": ""Ag"", ""occu"": 1}], ""abc"": [0.666667, 0.333333, 0.749999], ""properties"": {""magmom"": 0.0}, ""label"": ""Ag"", ""xyz"": [1.43076251742708, 0.8260489872835299, 9.214256346808488]}, {""species"": [{""element"": ""Ag"", ""occu"": 1}], ""abc"": [0.333333, 0.666667, 0.250001], ""properties"": {""magmom"": 0.0}, ""label"": ""Ag"", ""xyz"": [-7.574270800558836e-07, 1.65210044271647, 3.0714351631915093]}, {""species"": [{""element"": ""O"", ""occu"": 1}], ""abc"": [0.666667, 0.333333, 0.57804639], ""properties"": {""magmom"": -0.0}, ""label"": ""O"", ""xyz"": [1.43076251742708, 0.8260489872835299, 7.1016996260091485]}, {""species"": [{""element"": ""O"", ""occu"": 1}], ""abc"": [0.333333, 0.666667, 0.42195361000000003], ""properties"": {""magmom"": -0.0}, ""label"": ""O"", ""xyz"": [-7.574270800558836e-07, 1.65210044271647, 5.183991883990851]}, {""species"": [{""element"": ""O"", ""occu"": 1}], ""abc"": [0.666667, 0.333333, 0.9219526100000001], ""properties"": {""magmom"": -0.0}, ""label"": ""O"", ""xyz"": [1.43076251742708, 0.8260489872835299, 11.326825353299341]}, {""species"": [{""element"": ""O"", ""occu"": 1}], ""abc"": [0.333333, 0.666667, 0.07804739000000001], ""properties"": {""magmom"": -0.0}, ""label"": ""O"", ""xyz"": [-7.574270800558836e-07, 1.65210044271647, 0.958866156700659]}]}",CoAgO2,194,0.1949999999999998,0.0,1.560837225471282,1.807250088419491,1.1421197814226778
mp-22232,"{""@module"": ""pymatgen.core.structure"", ""@class"": ""Structure"", ""charge"": 0, ""lattice"": {""matrix"": [[6.49573125, 0.002571099999999, -1.78050507], [-3.77890329, 5.28340983, -1.78050504], [-0.00132181, -0.0025700700000000003, 6.73533316]], ""pbc"": [true, true, true], ""a"": 6.735334393114976, ""b"": 6.73533426819923, ""c"": 6.735333780046618, ""alpha"": 105.33974466750642, ""beta"": 105.33975641381964, ""gamma"": 118.09374568439011, ""volume"": 231.1600042795146}, ""properties"": {}, ""sites"": [{""species"": [{""element"": ""Tl"", ""occu"": 1}], ""abc"": [0.25, 0.25, 0.0], ""properties"": {""magmom"": -0.0}, ""label"": ""Tl"", ""xyz"": [0.6792069900000001, 1.3214952324999998, -0.8902525275]}, {""species"": [{""element"": ""Tl"", ""occu"": 1}], ""abc"": [0.75, 0.75, 0.0], ""properties"": {""magmom"": -0.0}, ""label"": ""Tl"", ""xyz"": [2.0376209700000008, 3.9644856974999994, -2.6707575825000003]}, {""species"": [{""element"": ""In"", ""occu"": 1}], ""abc"": [0.25, 0.75, 0.5], ""properties"": {""magmom"": -0.0}, ""label"": ""In"", ""xyz"": [-1.2109055599999998, 3.9619151125, 1.5871615324999997]}, {""species"": [{""element"": ""In"", ""occu"": 1}], ""abc"": [0.75, 0.25, 0.5], ""properties"": {""magmom"": -0.0}, ""label"": ""In"", ""xyz"": [3.9264117100000004, 1.3214957474999993, 1.5871615174999998]}, {""species"": [{""element"": ""Se"", ""occu"": 1}], ""abc"": [0.82931736, 0.67068264, 0.5], ""properties"": {""magmom"": 0.0}, ""label"": ""Se"", ""xyz"": [2.8519169516776146, 3.5443384758506467, 0.696908995120479]}, {""species"": [{""element"": ""Se"", ""occu"": 1}], ""abc"": [0.32931736, 0.82931736, 0.15863573], ""properties"": {""magmom"": 0.0}, ""label"": ""Se"", ""xyz"": [-0.9949627199328857, 4.382062494947343, -0.9944904757287025]}, {""species"": [{""element"": ""Se"", ""occu"": 1}], ""abc"": [0.17068264, 0.32931736, 0.5], ""properties"": {""magmom"": 0.0}, ""label"": ""Se"", ""xyz"": [-0.13641080167761427, 1.7390723841493527, 2.477414054879521]}, {""species"": [{""element"": ""Se"", ""occu"": 1}], ""abc"": [0.67068264, 0.17068264, 0.84136427], ""properties"": {""magmom"": 0.0}, ""label"": ""Se"", ""xyz"": [3.710468869932886, 0.9013483650526556, 4.1688135257287025]}]}",TlInSe2,140,0.8663999999999996,0.0,0.0440588212319313,0.1326754267119202,0.0240806975290438
mp-1178355,"{""@module"": ""pymatgen.core.structure"", ""@class"": ""Structure"", ""charge"": 0, ""lattice"": {""matrix"": [[-1.93698294, 1.93698294, 6.15540236], [1.93698294, -1.93698294, 6.15540236], [1.93698294, 1.93698294, -6.15540236]], ""pbc"": [true, true, true], ""a"": 6.73741671808978, ""b"": 6.73741671808978, ""c"": 6.73741671808978, ""alpha"": 146.5837452669944, ""beta"": 146.5837452669944, ""gamma"": 47.980513174308264, ""volume"": 92.37788810315193}, ""properties"": {}, ""sites"": [{""species"": [{""element"": ""Er"", ""occu"": 1}], ""abc"": [0.66360585, 0.66360585, 0.0], ""properties"": {""magmom"": -0.0}, ""label"": ""Er"", ""xyz"": [0.0, 0.0, 8.169522030399612]}, {""species"": [{""element"": ""Er"", ""occu"": 1}], ""abc"": [0.33639415, 0.33639415, -0.0], ""properties"": {""magmom"": -0.0}, ""label"": ""Er"", ""xyz"": [0.0, 0.0, 4.141282689600388]}, {""species"": [{""element"": ""Te"", ""occu"": 1}], ""abc"": [0.0, 0.0, 0.0], ""properties"": {""magmom"": -0.0}, ""label"": ""Te"", ""xyz"": [0.0, 0.0, 0.0]}, {""species"": [{""element"": ""O"", ""occu"": 1}], ""abc"": [0.25, 0.75, 0.5], ""properties"": {""magmom"": 0.0}, ""label"": ""O"", ""xyz"": [1.93698294, 0.0, 3.07770118]}, {""species"": [{""element"": ""O"", ""occu"": 1}], ""abc"": [0.75, 0.25, 0.5], ""properties"": {""magmom"": 0.0}, ""label"": ""O"", ""xyz"": [0.0, 1.93698294, 3.07770118]}]}",Er2TeO2,139,0.9340000000000002,0.0,0.0188070991004637,0.0396055506287364,0.0114475007250498
mp-2490,"{""@module"": ""pymatgen.core.structure"", ""@class"": ""Structure"", ""charge"": 0, ""lattice"": {""matrix"": [[3.33842517, -0.0, 1.9274401], [1.11280806, 3.14749671, 1.9274401], [-0.0, -0.0, 3.8548812]], ""pbc"": [true, true, true], ""a"": 3.854881055853415, ""b"": 3.854880368694961, ""c"": 3.8548812, ""alpha"": 60.00000144761544, ""beta"": 60.00000734429977, ""gamma"": 60.00000390436404, ""volume"": 40.5058667192971}, ""properties"": {}, ""sites"": [{""species"": [{""element"": ""Ga"", ""occu"": 1}], ""abc"": [-0.0, -0.0, 0.0], ""properties"": {""magmom"": 0.0}, ""label"": ""Ga"", ""xyz"": [0.0, 0.0, 0.0]}, {""species"": [{""element"": ""P"", ""occu"": 1}], ""abc"": [0.25, 0.25, 0.25], ""properties"": {""magmom"": 0.0}, ""label"": ""P"", ""xyz"": [1.1128083075, 0.7868741775, 1.92744035]}]}",GaP,216,1.5899,0.0,0.0353816415569895,0.1615892894669006,0.0199930738446107
mp-690785,"{""@module"": ""pymatgen.core.structure"", ""@class"": ""Structure"", ""charge"": 0, ""lattice"": {""matrix"": [[3.62931595, 3.62931595, -0.0], [0.0, 3.62931595, 3.62931595], [3.62931595, -0.0, 3.62931595]], ""pbc"": [true, true, true], ""a"": 5.132627838626994, ""b"": 5.132627838626994, ""c"": 5.132627838626994, ""alpha"": 60.00000000000001, ""beta"": 60.00000000000001, ""gamma"": 60.00000000000001, ""volume"": 95.61022224008332}, ""properties"": {}, ""sites"": [{""species"": [{""element"": ""Na"", ""occu"": 1}], ""abc"": [0.75, 0.75, 0.75], ""properties"": {""magmom"": 0.0}, ""label"": ""Na"", ""xyz"": [5.443973925, 5.443973925, 5.443973925]}, {""species"": [{""element"": ""Na"", ""occu"": 1}], ""abc"": [0.25, 0.25, 0.25], ""properties"": {""magmom"": 0.0}, ""label"": ""Na"", ""xyz"": [1.814657975, 1.814657975, 1.814657975]}, {""species"": [{""element"": ""H"", ""occu"": 1}], ""abc"": [0.22553565, 0.77446435, 0.77446435], ""properties"": {""magmom"": 0.0}, ""label"": ""H"", ""xyz"": [3.62931595, 3.62931595, 5.621551636322765]}, {""species"": [{""element"": ""H"", ""occu"": 1}], ""abc"": [0.22553565, 0.22553565, 0.77446435], ""properties"": {""magmom"": 0.0}, ""label"": ""H"", ""xyz"": [3.62931595, 1.637080263677235, 3.62931595]}, {""species"": [{""element"": ""H"", ""occu"": 1}], ""abc"": [0.22553565, 0.77446435, 0.22553565], ""properties"": {""magmom"": 0.0}, ""label"": ""H"", ""xyz"": [1.637080263677235, 3.62931595, 3.62931595]}, {""species"": [{""element"": ""H"", ""occu"": 1}], ""abc"": [0.77446435, 0.22553565, 0.22553565], ""properties"": {""magmom"": 0.0}, ""label"": ""H"", ""xyz"": [3.62931595, 3.62931595, 1.637080263677235]}, {""species"": [{""element"": ""H"", ""occu"": 1}], ""abc"": [0.77446435, 0.77446435, 0.22553565], ""properties"": {""magmom"": 0.0}, ""label"": ""H"", ""xyz"": [3.62931595, 5.621551636322765, 3.62931595]}, {""species"": [{""element"": ""H"", ""occu"": 1}], ""abc"": [0.77446435, 0.22553565, 0.77446435], ""properties"": {""magmom"": 0.0}, ""label"": ""H"", ""xyz"": [5.621551636322765, 3.62931595, 3.62931595]}, {""species"": [{""element"": ""Pt"", ""occu"": 1}], ""abc"": [-0.0, 0.0, -0.0], ""properties"": {""magmom"": 0.0}, ""label"": ""Pt"", ""xyz"": [0.0, 0.0, 0.0]}]}",Na2H6Pt,225,3.6527,0.0,0.00397477538176,0.0060665181497185,0.0027674091150086
mp-27831,"{""@module"": ""pymatgen.core.structure"", ""@class"": ""Structure"", ""charge"": 0, ""lattice"": {""matrix"": [[6.25405425, 0.0, 3.61077956], [2.08468509, 5.89637895, 3.61077956], [-0.0, -0.0, 7.22156013]], ""pbc"": [true, true, true], ""a"": 7.221559637146041, ""b"": 7.221559781472781, ""c"": 7.22156013, ""alpha"": 60.00000303000236, ""beta"": 60.00000236888622, ""gamma"": 59.99999954281712, ""volume"": 266.30422884710833}, ""properties"": {}, ""sites"": [{""species"": [{""element"": ""Rb"", ""occu"": 1}], ""abc"": [0.75, 0.75, 0.75], ""properties"": {""magmom"": 0.0}, ""label"": ""Rb"", ""xyz"": [6.254054505, 4.4222842125, 10.8323394375]}, {""species"": [{""element"": ""Rb"", ""occu"": 1}], ""abc"": [0.25, 0.25, 0.25], ""properties"": {""magmom"": 0.0}, ""label"": ""Rb"", ""xyz"": [2.084684835, 1.4740947375, 3.6107798125]}, {""species"": [{""element"": ""Zr"", ""occu"": 1}], ""abc"": [0.0, -0.0, -0.0], ""properties"": {""magmom"": -0.0}, ""label"": ""Zr"", ""xyz"": [0.0, 0.0, 0.0]}, {""species"": [{""element"": ""Cl"", ""occu"": 1}], ""abc"": [0.2420814, 0.7579186, 0.7579186], ""properties"": {""magmom"": 0.0}, ""label"": ""Cl"", ""xyz"": [3.094011813369624, 4.46897527885347, 9.084134303545419]}, {""species"": [{""element"": ""Cl"", ""occu"": 1}], ""abc"": [0.2420814, 0.7579186, 0.2420814], ""properties"": {""magmom"": 0.0}, ""label"": ""Cl"", ""xyz"": [3.094011813369624, 4.46897527885347, 5.358984946454582]}, {""species"": [{""element"": ""Cl"", ""occu"": 1}], ""abc"": [0.7579186, 0.2420814, 0.7579186], ""properties"": {""magmom"": 0.0}, ""label"": ""Cl"", ""xyz"": [5.244727526630376, 1.4274036711465299, 9.084134303545419]}, {""species"": [{""element"": ""Cl"", ""occu"": 1}], ""abc"": [0.7579186, 0.2420814, 0.2420814], ""properties"": {""magmom"": 0.0}, ""label"": ""Cl"", ""xyz"": [5.244727526630376, 1.4274036711465299, 5.358984946454582]}, {""species"": [{""element"": ""Cl"", ""occu"": 1}], ""abc"": [0.7579186, 0.7579186, 0.2420814], ""properties"": {""magmom"": 0.0}, ""label"": ""Cl"", ""xyz"": [6.320085646337724, 4.46897527885347, 7.221559364502214]}, {""species"": [{""element"": ""Cl"", ""occu"": 1}], ""abc"": [0.2420814, 0.2420814, 0.7579186], ""properties"": {""magmom"": 0.0}, ""label"": ""Cl"", ""xyz"": [2.018653693662276, 1.4274036711465299, 7.221559885497786]}]}",Rb2ZrCl6,225,3.5999,0.0,0.0037786455161573,0.005893995812368,0.0025517840225267
mp-4495,"{""@module"": ""pymatgen.core.structure"", ""@class"": ""Structure"", ""charge"": 0, ""lattice"": {""matrix"": [[4.83709739, 0.0, 0.0], [0.0, 4.83709739, -0.0], [0.0, 0.0, 7.7010359]], ""pbc"": [true, true, true], ""a"": 4.83709739, ""b"": 4.83709739, ""c"": 7.7010359, ""alpha"": 90.0, ""beta"": 90.0, ""gamma"": 90.0, ""volume"": 180.18507341646608}, ""properties"": {}, ""sites"": [{""species"": [{""element"": ""K"", ""occu"": 1}], ""abc"": [0.25, 0.25, 0.6648719200000001], ""properties"": {""magmom"": -0.0}, ""label"": ""K"", ""xyz"": [1.2092743475, 1.2092743475, 5.120202524821928]}, {""species"": [{""element"": ""K"", ""occu"": 1}], ""abc"": [0.75, 0.75, 0.33512808], ""properties"": {""magmom"": -0.0}, ""label"": ""K"", ""xyz"": [3.6278230425, 3.6278230425, 2.580833375178072]}, {""species"": [{""element"": ""Li"", ""occu"": 1}], ""abc"": [0.25, 0.75, -0.0], ""properties"": {""magmom"": -0.0}, ""label"": ""Li"", ""xyz"": [1.2092743475, 3.6278230425, 0.0]}, {""species"": [{""element"": ""Li"", ""occu"": 1}], ""abc"": [0.75, 0.25, -0.0], ""properties"": {""magmom"": -0.0}, ""label"": ""Li"", ""xyz"": [3.6278230425, 1.2092743475, 0.0]}, {""species"": [{""element"": ""Te"", ""occu"": 1}], ""abc"": [0.25, 0.25, 0.19883894], ""properties"": {""magmom"": 0.0}, ""label"": ""Te"", ""xyz"": [1.2092743475, 1.2092743475, 1.531265815257946]}, {""species"": [{""element"": ""Te"", ""occu"": 1}], ""abc"": [0.75, 0.75, 0.80116106], ""properties"": {""magmom"": 0.0}, ""label"": ""Te"", ""xyz"": [3.6278230425, 3.6278230425, 6.169770084742054]}]}",KLiTe,129,2.4223,0.0,0.0103383257699149,0.0177943959805182,0.0070873135408053
mp-23025,"{""@module"": ""pymatgen.core.structure"", ""@class"": ""Structure"", ""charge"": 0, ""lattice"": {""matrix"": [[4.11542769, 0.0, -0.0], [-0.0, 4.11542769, -0.0], [-0.0, -0.0, 6.92503718]], ""pbc"": [true, true, true], ""a"": 4.11542769, ""b"": 4.11542769, ""c"": 6.92503718, ""alpha"": 90.0, ""beta"": 90.0, ""gamma"": 90.0, ""volume"": 117.2875893291415}, ""properties"": {}, ""sites"": [{""species"": [{""element"": ""La"", ""occu"": 1}], ""abc"": [0.75, 0.75, 0.82539496], ""properties"": {""magmom"": -0.0}, ""label"": ""La"", ""xyz"": [3.0865707674999996, 3.0865707674999996, 5.715890786184613]}, {""species"": [{""element"": ""La"", ""occu"": 1}], ""abc"": [0.25, 0.25, 0.17460504000000002], ""properties"": {""magmom"": -0.0}, ""label"": ""La"", ""xyz"": [1.0288569225, 1.0288569225, 1.2091463938153875]}, {""species"": [{""element"": ""Cl"", ""occu"": 1}], ""abc"": [0.25, 0.25, 0.63088519], ""properties"": {""magmom"": 0.0}, ""label"": ""Cl"", ""xyz"": [1.0288569225, 1.0288569225, 4.368903397061365]}, {""species"": [{""element"": ""Cl"", ""occu"": 1}], ""abc"": [0.75, 0.75, 0.36911481], ""properties"": {""magmom"": 0.0}, ""label"": ""Cl"", ""xyz"": [3.0865707674999996, 3.0865707674999996, 2.556133782938636]}, {""species"": [{""element"": ""O"", ""occu"": 1}], ""abc"": [0.75, 0.25, -0.0], ""properties"": {""magmom"": 0.0}, ""label"": ""O"", ""xyz"": [3.0865707674999996, 1.0288569225, 0.0]}, {""species"": [{""element"": ""O"", ""occu"": 1}], ""abc"": [0.25, 0.75, -0.0], ""properties"": {""magmom"": 0.0}, ""label"": ""O"", ""xyz"": [1.0288569225, 3.0865707674999996, 0.0]}]}",LaClO,129,4.0661000000000005,0.0,0.0032450744872682,0.0048586001887473,0.0022895754989326
mp-1018025,"{""@module"": ""pymatgen.core.structure"", ""@class"": ""Structure"", ""charge"": 0, ""lattice"": {""matrix"": [[-1.686803139999999, -2.92162763, -0.0], [-3.37360426, -0.0, -0.0], [-1.686803139999999, -0.97387588, -6.19663095]], ""pbc"": [true, true, true], ""a"": 3.373605317978568, ""b"": 3.37360426, ""c"": 6.495534942809371, ""alpha"": 74.94853531692797, ""beta"": 74.94853675510255, ""gamma"": 59.99999056694211, ""volume"": 61.0765688395842}, ""properties"": {}, ""sites"": [{""species"": [{""element"": ""Lu"", ""occu"": 1}], ""abc"": [0.5, 0.5, 0.5], ""properties"": {""magmom"": 0.0}, ""label"": ""Lu"", ""xyz"": [-3.3736052699999988, -1.947751755, -3.098315475]}, {""species"": [{""element"": ""Ag"", ""occu"": 1}], ""abc"": [0.0, 0.0, 0.0], ""properties"": {""magmom"": 0.0}, ""label"": ""Ag"", ""xyz"": [0.0, 0.0, 0.0]}, {""species"": [{""element"": ""O"", ""occu"": 1}], ""abc"": [0.88889907, 0.88889907, 0.33330078], ""properties"": {""magmom"": -0.0}, ""label"": ""O"", ""xyz"": [-5.060404233949566, -2.9216256736204906, -2.065341929007141]}, {""species"": [{""element"": ""O"", ""occu"": 1}], ""abc"": [0.11110093, 0.11110093, 0.66669922], ""properties"": {""magmom"": -0.0}, ""label"": ""O"", ""xyz"": [-1.6868063060504321, -0.9738778363795095, -4.13128902099286]}]}",LuAgO2,166,2.2175,0.0,0.0088185616024489,0.0145732652172268,0.0056101000913813
mp-24066,"{""@module"": ""pymatgen.core.structure"", ""@class"": ""Structure"", ""charge"": 0, ""lattice"": {""matrix"": [[2.091293, -3.622225, 0.0], [2.091293, 3.622225, 0.0], [0.0, 0.0, 10.079665]], ""pbc"": [true, true, true], ""a"": 4.182585368223104, ""b"": 4.182585368223104, ""c"": 10.079665, ""alpha"": 90.0, ""beta"": 90.0, ""gamma"": 119.99999000665369, ""volume"": 152.70962180477073}, ""properties"": {}, ""sites"": [{""species"": [{""element"": ""Sr"", ""occu"": 1}], ""abc"": [0.666667, 0.333333, 0.197223999999999], ""properties"": {""magmom"": 0.0}, ""label"": ""Sr"", ""xyz"": [2.091293, -1.2074107481499998, 1.9879518499599902]}, {""species"": [{""element"": ""Sr"", ""occu"": 1}], ""abc"": [0.333333, 0.666667, 0.697224], ""properties"": {""magmom"": 0.0}, ""label"": ""Sr"", ""xyz"": [2.091293, 1.2074107481499998, 7.02778434996]}, {""species"": [{""element"": ""H"", ""occu"": 1}], ""abc"": [0.0, 0.0, 0.8602500000000001], ""properties"": {""magmom"": -0.0}, ""label"": ""H"", ""xyz"": [0.0, 0.0, 8.67103181625]}, {""species"": [{""element"": ""H"", ""occu"": 1}], ""abc"": [0.0, 0.0, 0.36025], ""properties"": {""magmom"": -0.0}, ""label"": ""H"", ""xyz"": [0.0, 0.0, 3.6311993162500005]}, {""species"": [{""element"": ""Cl"", ""occu"": 1}], ""abc"": [0.333333, 0.666667, 0.010615999999999001], ""properties"": {""magmom"": 0.0}, ""label"": ""Cl"", ""xyz"": [2.091293, 1.2074107481499998, 0.10700572363998993]}, {""species"": [{""element"": ""Cl"", ""occu"": 1}], ""abc"": [0.666667, 0.333333, 0.510616], ""properties"": {""magmom"": 0.0}, ""label"": ""Cl"", ""xyz"": [2.091293, -1.2074107481499998, 5.14683822364]}, {""species"": [{""element"": ""O"", ""occu"": 1}], ""abc"": [0.0, 0.0, 0.26341000000000003], ""properties"": {""magmom"": 0.0}, ""label"": ""O"", ""xyz"": [0.0, 0.0, 2.6550845576500004]}, {""species"": [{""element"": ""O"", ""occu"": 1}], ""abc"": [0.0, 0.0, 0.76341], ""properties"": {""magmom"": 0.0}, ""label"": ""O"", ""xyz"": [0.0, 0.0, 7.694917057650001]}]}",SrHClO,186,4.969,0.0,0.0015520754534975,0.00224869764606,0.0010602288169539