id,structure_json,formula,spacegroup,bandgap,energy_above_hull,k_1064,k_755,k_1500
mp-5860,"{""@module"": ""pymatgen.core.structure"", ""@class"": ""Structure"", ""charge"": 0, ""lattice"": {""matrix"": [[3.77045791, -0.0, -1.01838243], [-0.27506011, 3.76041208, -1.01838242], [0.00995527, 0.01071185, 7.52592631]], ""pbc"": [true, true, true], ""a"": 3.9055672603111415, ""b"": 3.905567798526636, ""c"": 7.525940517615151, ""alpha"": 105.03883466584598, ""beta"": 105.03885055537967, ""gamma"": 89.99999926349764, ""volume"": 106.7884172544058}, ""properties"": {}, ""sites"": [{""species"": [{""element"": ""K"", ""occu"": 1}], ""abc"": [0.66944678, 0.66944678, 0.33889456], ""properties"": {""magmom"": 0.0}, ""label"": ""K"", ""xyz"": [2.3433565888754155, 2.5210259461216387, 1.186989814970191]}, {""species"": [{""element"": ""K"", ""occu"": 1}], ""abc"": [0.33055322, 0.33055322, 0.66110544], ""properties"": {""magmom"": 0.0}, ""label"": ""K"", ""xyz"": [1.1619964811245846, 1.2500979838783617, 4.30217164502981]}, {""species"": [{""element"": ""Hg"", ""occu"": 1}], ""abc"": [-0.0, -0.0, -0.0], ""properties"": {""magmom"": -0.0}, ""label"": ""Hg"", ""xyz"": [0.0, 0.0, 0.0]}, {""species"": [{""element"": ""O"", ""occu"": 1}], ""abc"": [0.85806562, 0.85806562, 0.71613225], ""properties"": {""magmom"": 0.0}, ""label"": ""O"", ""xyz"": [3.006409970308094, 3.234351424122852, 3.6418806479050403]}, {""species"": [{""element"": ""O"", ""occu"": 1}], ""abc"": [0.14193438, 0.14193438, 0.28386775000000003], ""properties"": {""magmom"": 0.0}, ""label"": ""O"", ""xyz"": [0.49894309969190653, 0.536772505877148, 1.8472808120949598]}]}",K2HgO2,139,2.077,0.0,0.0064455993057915,0.0109416852851186,0.0042810392611434
mp-13275,"{""@module"": ""pymatgen.core.structure"", ""@class"": ""Structure"", ""charge"": 0, ""lattice"": {""matrix"": [[7.66479957, 1e-08, -0.0], [-3.83239878, 6.63791116, -0.0], [-0.0, 0.0, 4.48604454]], ""pbc"": [true, true, true], ""a"": 7.66479957, ""b"": 7.664799082624282, ""c"": 4.48604454, ""alpha"": 90.0, ""beta"": 90.0, ""gamma"": 119.99999335390774, ""volume"": 228.24213439099114}, ""properties"": {}, ""sites"": [{""species"": [{""element"": ""Na"", ""occu"": 1}], ""abc"": [0.75833195, 0.0, 0.0], ""properties"": {""magmom"": 0.0}, ""label"": ""Na"", ""xyz"": [5.812462404277261, 7.5833195e-09, 0.0]}, {""species"": [{""element"": ""Na"", ""occu"": 1}], ""abc"": [0.24166805, 0.24166805, 0.0], ""properties"": {""magmom"": 0.0}, ""label"": ""Na"", ""xyz"": [0.9261688257377593, 1.6041710485271183, 0.0]}, {""species"": [{""element"": ""Na"", ""occu"": 1}], ""abc"": [0.0, 0.75833195, -0.0], ""properties"": {""magmom"": 0.0}, ""label"": ""Na"", ""xyz"": [-2.906230440015021, 5.033740113889562, 0.0]}, {""species"": [{""element"": ""Sr"", ""occu"": 1}], ""abc"": [-0.0, 0.41479077000000003, 0.5], ""properties"": {""magmom"": -0.0}, ""label"": ""Sr"", ""xyz"": [-1.5896436409032608, 2.753344281247993, 2.24302227]}, {""species"": [{""element"": ""Sr"", ""occu"": 1}], ""abc"": [0.41479077000000003, -0.0, 0.5], ""properties"": {""magmom"": -0.0}, ""label"": ""Sr"", ""xyz"": [3.179288115535969, 4.1479077000000005e-09, 2.24302227]}, {""species"": [{""element"": ""Sr"", ""occu"": 1}], ""abc"": [0.58520923, 0.58520923, 0.5], ""properties"": {""magmom"": -0.0}, ""label"": ""Sr"", ""xyz"": [2.242756315367291, 3.884566884604099, 2.24302227]}, {""species"": [{""element"": ""P"", ""occu"": 1}], ""abc"": [0.333333, 0.666667, 0.0], ""properties"": {""magmom"": -0.0}, ""label"": ""P"", ""xyz"": [-3.162399450307163e-06, 4.42527632263705, 0.0]}, {""species"": [{""element"": ""P"", ""occu"": 1}], ""abc"": [0.0, 0.0, 0.5], ""properties"": {""magmom"": 0.0}, ""label"": ""P"", ""xyz"": [0.0, 0.0, 2.24302227]}, {""species"": [{""element"": ""P"", ""occu"": 1}], ""abc"": [0.666667, 0.333333, -0.0], ""properties"": {""magmom"": -0.0}, ""label"": ""P"", ""xyz"": [3.83240395239945, 2.2126348473629496, 0.0]}]}",NaSrP,189,1.2499000000000002,0.0,0.0832403891066413,0.2570147563796893,0.028241417707073
mp-7472,"{""@module"": ""pymatgen.core.structure"", ""@class"": ""Structure"", ""charge"": 0, ""lattice"": {""matrix"": [[4.37102587, -0.0, -1.62047831], [0.0, 6.04778681, -0.0], [-0.04911964, -0.0, 6.5728779]], ""pbc"": [true, true, true], ""a"": 4.661739708455387, ""b"": 6.04778681, ""c"": 6.573061434928335, ""alpha"": 90.0, ""beta"": 110.7695132803563, ""gamma"": 90.0, ""volume"": 173.2728540115488}, ""properties"": {}, ""sites"": [{""species"": [{""element"": ""Rb"", ""occu"": 1}], ""abc"": [0.30000582, 0.75, 0.60001163], ""properties"": {""magmom"": -0.0}, ""label"": ""Rb"", ""xyz"": [1.2818608451091502, 4.5358401075, 3.4576502583862125]}, {""species"": [{""element"": ""Rb"", ""occu"": 1}], ""abc"": [0.69999418, 0.25, 0.39998837], ""properties"": {""magmom"": -0.0}, ""label"": ""Rb"", ""xyz"": [3.04004538489085, 1.5119467025, 1.4947493316137872]}, {""species"": [{""element"": ""Au"", ""occu"": 1}], ""abc"": [0.99743682, 0.25, 0.99487265], ""properties"": {""magmom"": 0.0}, ""label"": ""Au"", ""xyz"": [4.310954357496688, 1.5119467025, 4.922851722094061]}, {""species"": [{""element"": ""Au"", ""occu"": 1}], ""abc"": [0.00256318, 0.75, 0.00512735], ""properties"": {""magmom"": 0.0}, ""label"": ""Au"", ""xyz"": [0.010951872503312601, 4.5358401075, 0.029547867905939204]}, {""species"": [{""element"": ""O"", ""occu"": 1}], ""abc"": [0.89192236, 0.50492612, 0.78384272], ""properties"": {""magmom"": -0.0}, ""label"": ""O"", ""xyz"": [3.860113637368433, 3.0536855285604774, 3.7067616527798757]}, {""species"": [{""element"": ""O"", ""occu"": 1}], ""abc"": [0.10807764, 0.49507388, 0.21615728], ""properties"": {""magmom"": -0.0}, ""label"": ""O"", ""xyz"": [0.46179259263156763, 2.994101281439523, 1.2456379372201236]}, {""species"": [{""element"": ""O"", ""occu"": 1}], ""abc"": [0.89192236, 0.99507388, 0.78384272], ""properties"": {""magmom"": -0.0}, ""label"": ""O"", ""xyz"": [3.860113637368433, 6.017994686439523, 3.7067616527798757]}, {""species"": [{""element"": ""O"", ""occu"": 1}], ""abc"": [0.10807764, 0.00492612, 0.21615728], ""properties"": {""magmom"": -0.0}, ""label"": ""O"", ""xyz"": [0.46179259263156763, 0.0297921235604772, 1.2456379372201236]}]}",RbAuO2,63,1.4747,0.0,0.0083237577129128,0.0153802021875321,0.0054676686267781
mp-1178135,"{""@module"": ""pymatgen.core.structure"", ""@class"": ""Structure"", ""charge"": 0, ""lattice"": {""matrix"": [[6.23637383, -1.6737430500000001, 0.00293297], [6.23637383, 1.6737430500000001, 0.00293297], [5.78582124, 0.0, 2.8667152700000003]], ""pbc"": [true, true, true], ""a"": 6.457072320118862, ""b"": 6.457072320118862, ""c"": 6.457072390835208, ""alpha"": 30.046479913222658, ""beta"": 30.046479913222658, ""gamma"": 30.046481034156844, ""volume"": 59.78924318685596}, ""properties"": {}, ""sites"": [{""species"": [{""element"": ""K"", ""occu"": 1}], ""abc"": [-0.0, -0.0, 0.0], ""properties"": {""magmom"": -0.0}, ""label"": ""K"", ""xyz"": [0.0, 0.0, 0.0]}, {""species"": [{""element"": ""Lu"", ""occu"": 1}], ""abc"": [0.5, 0.5, 0.5], ""properties"": {""magmom"": -0.0}, ""label"": ""Lu"", ""xyz"": [9.12928445, 0.0, 1.4362906050000002]}, {""species"": [{""element"": ""O"", ""occu"": 1}], ""abc"": [0.22733418, 0.22733418, 0.22733418], ""properties"": {""magmom"": 0.0}, ""label"": ""O"", ""xyz"": [4.150796788855002, 0.0, 0.6530358938587578]}, {""species"": [{""element"": ""O"", ""occu"": 1}], ""abc"": [0.7726658200000001, 0.7726658200000001, 0.7726658200000001], ""properties"": {""magmom"": 0.0}, ""label"": ""O"", ""xyz"": [14.107772111144998, 0.0, 2.2195453161412426]}]}",KLuO2,166,4.0051,0.0,0.002561436658331,0.0038210316775099,0.0017349718022624
mp-10408,"{""@module"": ""pymatgen.core.structure"", ""@class"": ""Structure"", ""charge"": 0, ""lattice"": {""matrix"": [[3.94050113, 0.00593884, 0.92709898], [-0.15701322, 3.93737608, 0.92709898], [-0.01972305, -0.02055548, 5.77071283]], ""pbc"": [true, true, true], ""a"": 4.048097941511403, ""b"": 4.048097832973899, ""c"": 5.770783143801709, ""alpha"": 76.95677338449877, ""beta"": 76.9567810435772, ""gamma"": 89.07626391258796, ""volume"": 89.68931948665201}, ""properties"": {}, ""sites"": [{""species"": [{""element"": ""K"", ""occu"": 1}], ""abc"": [0.67396174, 0.67396174, 0.71212393], ""properties"": {""magmom"": -0.0}, ""label"": ""K"", ""xyz"": [2.5358808392149763, 2.643005335650524, 5.359121182827072]}, {""species"": [{""element"": ""K"", ""occu"": 1}], ""abc"": [0.32603826, 0.32603826, 0.28787607], ""properties"": {""magmom"": -0.0}, ""label"": ""K"", ""xyz"": [1.227884020785023, 1.2797541043494756, 2.2657896071729278]}, {""species"": [{""element"": ""C"", ""occu"": 1}], ""abc"": [-0.0, -0.0, 0.0], ""properties"": {""magmom"": 0.001}, ""label"": ""C"", ""xyz"": [0.0, 0.0, 0.0]}, {""species"": [{""element"": ""N"", ""occu"": 1}], ""abc"": [0.84290955, 0.84290955, 0.20420337], ""properties"": {""magmom"": -0.004}, ""label"": ""N"", ""xyz"": [3.185110578371862, 3.3196603064375183, 2.7413201752627554]}, {""species"": [{""element"": ""N"", ""occu"": 1}], ""abc"": [0.15709045, 0.15709045, 0.79579663], ""properties"": {""magmom"": -0.004}, ""label"": ""N"", ""xyz"": [0.578654281628138, 0.6030991335624816, 4.883590614737245]}]}",K2CN2,12,3.167,0.0,0.0028703046348836,0.0043669655491606,0.0019752698048057
mp-28797,"{""@module"": ""pymatgen.core.structure"", ""@class"": ""Structure"", ""charge"": 0, ""lattice"": {""matrix"": [[3.8409309, -0.0, -0.0], [-1.92046545, 3.32634474, 0.0], [0.0, -0.0, 3.91554956]], ""pbc"": [true, true, true], ""a"": 3.8409309, ""b"": 3.840931771584777, ""c"": 3.91554956, ""alpha"": 90.0, ""beta"": 90.0, ""gamma"": 119.99999249354248, ""volume"": 50.026080380129024}, ""properties"": {}, ""sites"": [{""species"": [{""element"": ""Y"", ""occu"": 1}], ""abc"": [-0.0, 0.0, 0.0], ""properties"": {""magmom"": -0.0}, ""label"": ""Y"", ""xyz"": [0.0, 0.0, 0.0]}, {""species"": [{""element"": ""H"", ""occu"": 1}], ""abc"": [0.333333, 0.666667, -0.0], ""properties"": {""magmom"": 0.0}, ""label"": ""H"", ""xyz"": [-1.9204654500004636e-06, 2.21756426878158, 0.0]}, {""species"": [{""element"": ""Se"", ""occu"": 1}], ""abc"": [0.666667, 0.333333, 0.5], ""properties"": {""magmom"": 0.0}, ""label"": ""Se"", ""xyz"": [1.92046737046545, 1.10878047121842, 1.95777478]}]}",YHSe,187,1.4994999999999998,0.0,0.0219541617200188,0.0589340858127385,0.0126692379249902
mp-3556,"{""@module"": ""pymatgen.core.structure"", ""@class"": ""Structure"", ""charge"": 0, ""lattice"": {""matrix"": [[3.71391194, -0.0, -0.0], [-1.85695647, 3.21634263, -0.0], [-0.0, -0.0, 6.49250428]], ""pbc"": [true, true, true], ""a"": 3.71391194, ""b"": 3.713912659854857, ""c"": 6.49250428, ""alpha"": 90.0, ""beta"": 90.0, ""gamma"": 120.0000024952463, ""volume"": 77.55434845425977}, ""properties"": {}, ""sites"": [{""species"": [{""element"": ""Tm"", ""occu"": 1}], ""abc"": [0.333333, 0.666667, 0.28399525000000003], ""properties"": {""magmom"": 0.0}, ""label"": ""Tm"", ""xyz"": [-2.1902894700165376e-06, 2.14422949211421, 1.8438403761246702]}, {""species"": [{""element"": ""Tm"", ""occu"": 1}], ""abc"": [0.666667, 0.333333, 0.71600475], ""properties"": {""magmom"": 0.0}, ""label"": ""Tm"", ""xyz"": [1.8569576602894702, 1.07211313788579, 4.64866390387533]}, {""species"": [{""element"": ""S"", ""occu"": 1}], ""abc"": [0.0, 0.0, 0.0], ""properties"": {""magmom"": 0.0}, ""label"": ""S"", ""xyz"": [0.0, 0.0, 0.0]}, {""species"": [{""element"": ""O"", ""occu"": 1}], ""abc"": [0.333333, 0.666667, 0.62909342], ""properties"": {""magmom"": -0.0}, ""label"": ""O"", ""xyz"": [-2.1902894700165376e-06, 2.14422949211421, 4.084391721869838]}, {""species"": [{""element"": ""O"", ""occu"": 1}], ""abc"": [0.666667, 0.333333, 0.37090658], ""properties"": {""magmom"": -0.0}, ""label"": ""O"", ""xyz"": [1.8569576602894702, 1.07211313788579, 2.4081125581301626]}]}",Tm2SO2,164,3.0873,0.0,0.0045046371276462,0.0069835764271181,0.003086224949432
mp-865120,"{""@module"": ""pymatgen.core.structure"", ""@class"": ""Structure"", ""charge"": 0, ""lattice"": {""matrix"": [[4.32748724, -0.0, 0.0], [0.0, 4.32748724, 0.0], [-0.0, -0.0, 4.32748724]], ""pbc"": [true, true, true], ""a"": 4.32748724, ""b"": 4.32748724, ""c"": 4.32748724, ""alpha"": 90.0, ""beta"": 90.0, ""gamma"": 90.0, ""volume"": 81.04148454461952}, ""properties"": {}, ""sites"": [{""species"": [{""element"": ""Na"", ""occu"": 1}], ""abc"": [0.0, -0.0, -0.0], ""properties"": {""magmom"": 0.0}, ""label"": ""Na"", ""xyz"": [0.0, 0.0, 0.0]}, {""species"": [{""element"": ""Pa"", ""occu"": 1}], ""abc"": [0.499998, 0.499998, 0.499998], ""properties"": {""magmom"": 0.0}, ""label"": ""Pa"", ""xyz"": [2.1637349650255198, 2.1637349650255198, 2.1637349650255198]}, {""species"": [{""element"": ""O"", ""occu"": 1}], ""abc"": [0.499998, 0.499998, -0.0], ""properties"": {""magmom"": -0.0}, ""label"": ""O"", ""xyz"": [2.1637349650255198, 2.1637349650255198, 0.0]}, {""species"": [{""element"": ""O"", ""occu"": 1}], ""abc"": [0.499998, -0.0, 0.499998], ""properties"": {""magmom"": -0.0}, ""label"": ""O"", ""xyz"": [2.1637349650255198, 0.0, 2.1637349650255198]}, {""species"": [{""element"": ""O"", ""occu"": 1}], ""abc"": [-0.0, 0.499998, 0.499998], ""properties"": {""magmom"": -0.0}, ""label"": ""O"", ""xyz"": [0.0, 2.1637349650255198, 2.1637349650255198]}]}",NaPaO3,221,2.9436000000000004,0.0,0.0051155768408589,0.0078348694578362,0.0034652806191779
mp-997089,"{""@module"": ""pymatgen.core.structure"", ""@class"": ""Structure"", ""charge"": 0, ""lattice"": {""matrix"": [[-1.11976518, -2.68533244, -0.81712347], [-3.54078087, -0.03408173, -0.62404349], [-0.01311443, 0.00923871, -5.60063687]], ""pbc"": [true, true, true], ""a"": 3.0220150788640394, ""b"": 3.5955140120835476, ""c"": 5.600659844307641, ""alpha"": 79.8717986417169, ""beta"": 74.34816914711818, ""gamma"": 65.14977274378694, ""volume"": 53.036750907958954}, ""properties"": {}, ""sites"": [{""species"": [{""element"": ""Na"", ""occu"": 1}], ""abc"": [0.5, 0.5, 0.5], ""properties"": {""magmom"": 0.0}, ""label"": ""Na"", ""xyz"": [-2.33683024, -1.35508773, -3.5209019149999996]}, {""species"": [{""element"": ""Au"", ""occu"": 1}], ""abc"": [0.5, 0.0, 0.0], ""properties"": {""magmom"": 0.0}, ""label"": ""Au"", ""xyz"": [-0.55988259, -1.34266622, -0.408561735]}, {""species"": [{""element"": ""O"", ""occu"": 1}], ""abc"": [0.08956104000000001, 0.06908482, 0.75179409], ""properties"": {""magmom"": -0.0}, ""label"": ""O"", ""xyz"": [-0.3547608941076993, -0.23591008867725233, -4.326820059062528]}, {""species"": [{""element"": ""O"", ""occu"": 1}], ""abc"": [0.91043896, 0.9309151800000001, 0.24820591], ""properties"": {""magmom"": -0.0}, ""label"": ""O"", ""xyz"": [-4.318899585892301, -2.474265371322748, -2.7149837709374713]}]}",NaAuO2,12,1.1269,0.0,0.016062221882376,0.0492399591048483,0.0095730082679771
mp-1206514,"{""@module"": ""pymatgen.core.structure"", ""@class"": ""Structure"", ""charge"": 0, ""lattice"": {""matrix"": [[4.20628578, 0.0, -0.0], [0.0, 4.20628578, 0.0], [0.0, 0.0, 4.20628578]], ""pbc"": [true, true, true], ""a"": 4.20628578, ""b"": 4.20628578, ""c"": 4.20628578, ""alpha"": 90.0, ""beta"": 90.0, ""gamma"": 90.0, ""volume"": 74.42114156493827}, ""properties"": {}, ""sites"": [{""species"": [{""element"": ""Mg"", ""occu"": 1}], ""abc"": [0.5, -0.0, -0.0], ""properties"": {""magmom"": -0.0}, ""label"": ""Mg"", ""xyz"": [2.10314289, 0.0, 0.0]}, {""species"": [{""element"": ""Mg"", ""occu"": 1}], ""abc"": [-0.0, 0.5, -0.0], ""properties"": {""magmom"": -0.0}, ""label"": ""Mg"", ""xyz"": [0.0, 2.10314289, 0.0]}, {""species"": [{""element"": ""Mg"", ""occu"": 1}], ""abc"": [-0.0, 0.0, 0.5], ""properties"": {""magmom"": -0.0}, ""label"": ""Mg"", ""xyz"": [0.0, 0.0, 2.10314289]}, {""species"": [{""element"": ""As"", ""occu"": 1}], ""abc"": [0.5, 0.5, 0.5], ""properties"": {""magmom"": 0.0}, ""label"": ""As"", ""xyz"": [2.10314289, 2.10314289, 2.10314289]}, {""species"": [{""element"": ""N"", ""occu"": 1}], ""abc"": [0.0, -0.0, 0.0], ""properties"": {""magmom"": 0.0}, ""label"": ""N"", ""xyz"": [0.0, 0.0, 0.0]}]}",Mg3AsN,221,1.3633999999999995,0.0,0.0907478141047552,0.3189048251621476,0.0313868601848403
mp-7611,"{""@module"": ""pymatgen.core.structure"", ""@class"": ""Structure"", ""charge"": 0, ""lattice"": {""matrix"": [[2.579548, 2.579548, 3.415212], [2.579548, -2.579548, -3.415212], [-2.579548, 2.579548, -3.415212]], ""pbc"": [true, true, true], ""a"": 4.997180082161538, ""b"": 4.997180082161538, ""c"": 4.997180082161538, ""alpha"": 93.77581814167773, ""beta"": 117.84450562887442, ""gamma"": 117.84450562887442, ""volume"": 90.90020994915852}, ""properties"": {}, ""sites"": [{""species"": [{""element"": ""Li"", ""occu"": 1}], ""abc"": [0.5, 0.25, 0.75], ""properties"": {""magmom"": -0.0}, ""label"": ""Li"", ""xyz"": [0.0, 2.579548, -1.7076059999999997]}, {""species"": [{""element"": ""Li"", ""occu"": 1}], ""abc"": [0.5, 0.75, 0.25], ""properties"": {""magmom"": -0.0}, ""label"": ""Li"", ""xyz"": [2.579548, 0.0, -1.7076059999999997]}, {""species"": [{""element"": ""Ca"", ""occu"": 1}], ""abc"": [0.0, 0.5, 0.5], ""properties"": {""magmom"": 0.0}, ""label"": ""Ca"", ""xyz"": [0.0, 0.0, -3.415212]}, {""species"": [{""element"": ""Ge"", ""occu"": 1}], ""abc"": [0.0, 0.0, 0.0], ""properties"": {""magmom"": 0.0}, ""label"": ""Ge"", ""xyz"": [0.0, 0.0, 0.0]}, {""species"": [{""element"": ""O"", ""occu"": 1}], ""abc"": [0.0, 0.059142999999999, 0.651706999999999], ""properties"": {""magmom"": -0.0}, ""label"": ""O"", ""xyz"": [-1.528547281072, 1.528547281072, -2.427703450199993]}, {""species"": [{""element"": ""O"", ""occu"": 1}], ""abc"": [0.0, 0.651706999999999, 0.059142999999999], ""properties"": {""magmom"": -0.0}, ""label"": ""O"", ""xyz"": [1.528547281072, -1.528547281072, -2.427703450199993]}, {""species"": [{""element"": ""O"", ""occu"": 1}], ""abc"": [0.592563, 0.940855999999999, 0.940855999999999], ""properties"": {""magmom"": -0.0}, ""label"": ""O"", ""xyz"": [1.528544701524, 1.528544701524, -4.402717134587993]}, {""species"": [{""element"": ""O"", ""occu"": 1}], ""abc"": [0.407437, 0.348294, 0.348294], ""properties"": {""magmom"": -0.0}, ""label"": ""O"", ""xyz"": [1.051003298476, 1.051003298476, -0.9875119650119999]}]}",Li2CaGeO4,121,4.1349,0.0,0.0022553518355519,0.0033284347488074,0.00147645418428
mp-19886,"{""@module"": ""pymatgen.core.structure"", ""@class"": ""Structure"", ""charge"": 0, ""lattice"": {""matrix"": [[4.16345469, 0.0, 2.40377154], [1.38781857, 3.92534228, 2.40377154], [-0.0, -0.0, 4.80754309]], ""pbc"": [true, true, true], ""a"": 4.8075432990454665, ""b"": 4.807543033078998, ""c"": 4.80754309, ""alpha"": 59.99999967714604, ""beta"": 60.000001507207564, ""gamma"": 59.999995122659946, ""volume"": 78.56960328715545}, ""properties"": {}, ""sites"": [{""species"": [{""element"": ""Th"", ""occu"": 1}], ""abc"": [-0.0, 0.0, -0.0], ""properties"": {""magmom"": 0.0}, ""label"": ""Th"", ""xyz"": [0.0, 0.0, 0.0]}, {""species"": [{""element"": ""Sn"", ""occu"": 1}], ""abc"": [0.5, 0.5, 0.5], ""properties"": {""magmom"": -0.0}, ""label"": ""Sn"", ""xyz"": [2.77563663, 1.96267114, 4.807543085000001]}, {""species"": [{""element"": ""Pt"", ""occu"": 1}], ""abc"": [0.25, 0.25, 0.25], ""properties"": {""magmom"": -0.0}, ""label"": ""Pt"", ""xyz"": [1.387818315, 0.98133557, 2.4037715425000004]}]}",ThSnPt,216,0.6759000000000004,0.0,2.2164541932437984,3.567972671167308,0.5628899507871604