id,structure_json,formula,spacegroup,bandgap,energy_above_hull,k_1064,k_755,k_1500
mp-4961,"{""@module"": ""pymatgen.core.structure"", ""@class"": ""Structure"", ""charge"": 0, ""lattice"": {""matrix"": [[3.28027711, -0.0, -0.81535488], [-0.20266658, 3.27400981, -0.81535488], [0.02016853, 0.021456, 7.08730712]], ""pbc"": [true, true, true], ""a"": 3.380091936431577, ""b"": 3.3800913536419315, ""c"": 7.087368294560475, ""alpha"": 103.79560307112448, ""beta"": 103.79560384748862, ""gamma"": 89.99999479948873, ""volume"": 76.23003578649424}, ""properties"": {}, ""sites"": [{""species"": [{""element"": ""Na"", ""occu"": 1}], ""abc"": [0.67768444, 0.67768444, 0.35536688], ""properties"": {""magmom"": 0.0}, ""label"": ""Na"", ""xyz"": [2.0928159961414403, 2.2263702564216366, 1.4134875883280513]}, {""species"": [{""element"": ""Na"", ""occu"": 1}], ""abc"": [0.32231556, 0.32231556, 0.6446331200000001], ""properties"": {""magmom"": 0.0}, ""label"": ""Na"", ""xyz"": [1.0049630638585603, 1.0690955535783637, 4.04310977167195]}, {""species"": [{""element"": ""Hg"", ""occu"": 1}], ""abc"": [-0.0, 0.0, 0.0], ""properties"": {""magmom"": -0.0}, ""label"": ""Hg"", ""xyz"": [0.0, 0.0, 0.0]}, {""species"": [{""element"": ""O"", ""occu"": 1}], ""abc"": [0.8504641, 0.8504641, 0.70092719], ""properties"": {""magmom"": -0.0}, ""label"": ""O"", ""xyz"": [2.631533940606304, 2.799466900241461, 3.5808261558889773]}, {""species"": [{""element"": ""O"", ""occu"": 1}], ""abc"": [0.1495359, 0.1495359, 0.29907281], ""properties"": {""magmom"": -0.0}, ""label"": ""O"", ""xyz"": [0.46624511939369634, 0.495998909758539, 1.8757712041110233]}]}",Na2HgO2,139,1.6452999999999998,0.0,0.0094918572353663,0.0189235267592049,0.0060311423546108
mp-1572,"{""@module"": ""pymatgen.core.structure"", ""@class"": ""Structure"", ""charge"": 0, ""lattice"": {""matrix"": [[3.77343736, 1e-08, -0.0], [-1.88671716, 3.26789204, 0.0], [0.0, -0.0, 16.52079197]], ""pbc"": [true, true, true], ""a"": 3.77343736, ""b"": 3.773436103465093, ""c"": 16.52079197, ""alpha"": 90.0, ""beta"": 90.0, ""gamma"": 119.99998421345911, ""volume"": 203.72095751026427}, ""properties"": {}, ""sites"": [{""species"": [{""element"": ""Ga"", ""occu"": 1}], ""abc"": [-0.0, -0.0, 0.07392213], ""properties"": {""magmom"": -0.0}, ""label"": ""Ga"", ""xyz"": [0.0, 0.0, 1.2212521317092961]}, {""species"": [{""element"": ""Ga"", ""occu"": 1}], ""abc"": [-0.0, 0.0, 0.92607787], ""properties"": {""magmom"": -0.0}, ""label"": ""Ga"", ""xyz"": [0.0, 0.0, 15.299539838290704]}, {""species"": [{""element"": ""Ga"", ""occu"": 1}], ""abc"": [0.666667, 0.333333, 0.42612593], ""properties"": {""magmom"": -0.0}, ""label"": ""Ga"", ""xyz"": [1.8867210733848399, 1.08929626403599, 7.039937842552782]}, {""species"": [{""element"": ""Ga"", ""occu"": 1}], ""abc"": [0.666667, 0.333333, 0.57387407], ""properties"": {""magmom"": -0.0}, ""label"": ""Ga"", ""xyz"": [1.8867210733848399, 1.08929626403599, 9.480854127447218]}, {""species"": [{""element"": ""Se"", ""occu"": 1}], ""abc"": [0.666667, 0.333333, 0.8561746100000001], ""properties"": {""magmom"": 0.0}, ""label"": ""Se"", ""xyz"": [1.8867210733848399, 1.08929626403599, 14.144682621805885]}, {""species"": [{""element"": ""Se"", ""occu"": 1}], ""abc"": [0.666667, 0.333333, 0.14382539], ""properties"": {""magmom"": 0.0}, ""label"": ""Se"", ""xyz"": [1.8867210733848399, 1.08929626403599, 2.3761093481941185]}, {""species"": [{""element"": ""Se"", ""occu"": 1}], ""abc"": [0.333333, 0.666667, 0.64381459], ""properties"": {""magmom"": 0.0}, ""label"": ""Se"", ""xyz"": [-8.733848400055422e-07, 2.17859578596401, 10.636326908640843]}, {""species"": [{""element"": ""Se"", ""occu"": 1}], ""abc"": [0.333333, 0.666667, 0.35618541], ""properties"": {""magmom"": 0.0}, ""label"": ""Se"", ""xyz"": [-8.733848400055422e-07, 2.17859578596401, 5.884465061359157]}]}",GaSe,187,1.2399000000000002,0.00028121875,0.0484310700595081,0.0889119574474981,0.0156274882787089
mp-1097065,"{""@module"": ""pymatgen.core.structure"", ""@class"": ""Structure"", ""charge"": 0, ""lattice"": {""matrix"": [[1.6185602700000001, -2.8034291, -0.0], [1.6185602700000001, 2.8034291, 0.0], [-0.0, -0.0, 5.42359518]], ""pbc"": [true, true, true], ""a"": 3.237120953308554, ""b"": 3.237120953308554, ""c"": 5.42359518, ""alpha"": 90.0, ""beta"": 90.0, ""gamma"": 120.00000844709656, ""volume"": 49.21933193231351}, ""properties"": {}, ""sites"": [{""species"": [{""element"": ""Li"", ""occu"": 1}], ""abc"": [0.666667, 0.333333, 0.38278857], ""properties"": {""magmom"": -0.0}, ""label"": ""Li"", ""xyz"": [1.6185602700000001, -0.9344782356193999, 2.076090243211093]}, {""species"": [{""element"": ""Li"", ""occu"": 1}], ""abc"": [0.333333, 0.666667, 0.61721143], ""properties"": {""magmom"": -0.0}, ""label"": ""Li"", ""xyz"": [1.6185602700000001, 0.9344782356193999, 3.3475049367889076]}, {""species"": [{""element"": ""Hf"", ""occu"": 1}], ""abc"": [-0.0, -0.0, -0.0], ""properties"": {""magmom"": -0.0}, ""label"": ""Hf"", ""xyz"": [0.0, 0.0, 0.0]}, {""species"": [{""element"": ""N"", ""occu"": 1}], ""abc"": [0.666667, 0.333333, 0.7793848600000001], ""properties"": {""magmom"": 0.0}, ""label"": ""N"", ""xyz"": [1.6185602700000001, -0.9344782356193999, 4.2270679700609755]}, {""species"": [{""element"": ""N"", ""occu"": 1}], ""abc"": [0.333333, 0.666667, 0.22061514000000002], ""properties"": {""magmom"": 0.0}, ""label"": ""N"", ""xyz"": [1.6185602700000001, 0.9344782356193999, 1.1965272099390254]}]}",Li2HfN2,164,1.8823,0.0,0.0148613824342968,0.0251853056072343,0.0092333461346887
mp-999447,"{""@module"": ""pymatgen.core.structure"", ""@class"": ""Structure"", ""charge"": 0, ""lattice"": {""matrix"": [[-2.24716322, -3.89219936, 0.0], [-4.49432644, 0.0, 0.0], [-2.24716322, -1.29739979, -7.49741574]], ""pbc"": [true, true, true], ""a"": 4.494325132353597, ""b"": 4.49432644, ""c"": 7.933740072047518, ""alpha"": 73.5462459611366, ""beta"": 73.54624758052884, ""gamma"": 59.999990375285364, ""volume"": 131.1509027197104}, ""properties"": {}, ""sites"": [{""species"": [{""element"": ""Na"", ""occu"": 1}], ""abc"": [-0.0, -0.0, 0.0], ""properties"": {""magmom"": 0.0}, ""label"": ""Na"", ""xyz"": [0.0, 0.0, 0.0]}, {""species"": [{""element"": ""Sm"", ""occu"": 1}], ""abc"": [0.5, 0.5, 0.5], ""properties"": {""magmom"": 0.0}, ""label"": ""Sm"", ""xyz"": [-4.49432644, -2.594799575, -3.74870787]}, {""species"": [{""element"": ""Te"", ""occu"": 1}], ""abc"": [0.75393206, 0.75393206, 0.7382018300000001], ""properties"": {""magmom"": -0.0}, ""label"": ""Te"", ""xyz"": [-6.741485188145193, -3.8921967806350977, -5.5346060195388045]}, {""species"": [{""element"": ""Te"", ""occu"": 1}], ""abc"": [0.24606794, 0.24606794, 0.26179817], ""properties"": {""magmom"": -0.0}, ""label"": ""Te"", ""xyz"": [-2.2471676918548082, -1.2974023693649028, -1.9628097204611958]}]}",NaSmTe2,166,1.1506000000000003,0.0,0.040173392591468,0.108841656909747,0.0229626366564716
mp-7046,"{""@module"": ""pymatgen.core.structure"", ""@class"": ""Structure"", ""charge"": 0, ""lattice"": {""matrix"": [[7.74175269, -2.02954547, 0.00215031], [7.74175269, 2.02954547, 0.00215031], [7.20873006, -0.0, 3.47677975]], ""pbc"": [true, true, true], ""a"": 8.003361428284546, ""b"": 8.003361428284546, ""c"": 8.003360950747982, ""alpha"": 29.37970465595697, ""beta"": 29.37970465595697, ""gamma"": 29.379705195557623, ""volume"": 109.19306948668086}, ""properties"": {}, ""sites"": [{""species"": [{""element"": ""Rb"", ""occu"": 1}], ""abc"": [-0.0, -0.0, 0.0], ""properties"": {""magmom"": 0.0}, ""label"": ""Rb"", ""xyz"": [0.0, 0.0, 0.0]}, {""species"": [{""element"": ""Dy"", ""occu"": 1}], ""abc"": [0.5, 0.5, 0.5], ""properties"": {""magmom"": 0.0}, ""label"": ""Dy"", ""xyz"": [11.34611772, 0.0, 1.740540185]}, {""species"": [{""element"": ""S"", ""occu"": 1}], ""abc"": [0.76926143, 0.76926143, 0.76926143], ""properties"": {""magmom"": -0.0}, ""label"": ""S"", ""xyz"": [17.456261484471078, 0.0, 2.677860863371129]}, {""species"": [{""element"": ""S"", ""occu"": 1}], ""abc"": [0.23073857, 0.23073857, 0.23073857], ""properties"": {""magmom"": -0.0}, ""label"": ""S"", ""xyz"": [5.235973955528921, 0.0, 0.8032195066288709]}]}",RbDyS2,166,2.3506,0.0,0.0093532106955305,0.0156522611925146,0.0062362234635791
mp-961673,"{""@module"": ""pymatgen.core.structure"", ""@class"": ""Structure"", ""charge"": 0, ""lattice"": {""matrix"": [[3.58106296, -2.04e-06, 2.06752758], [1.19368561, 3.37625921, 2.06752758], [0.0, 0.0, 4.13505516]], ""pbc"": [true, true, true], ""a"": 4.135055285912001, ""b"": 4.135055245421946, ""c"": 4.13505516, ""alpha"": 60.00000068336093, ""beta"": 60.00000100727443, ""gamma"": 60.00005531012744, ""volume"": 49.995294755868}, ""properties"": {}, ""sites"": [{""species"": [{""element"": ""Ti"", ""occu"": 1}], ""abc"": [0.5, 0.5, 0.5], ""properties"": {""magmom"": -0.0}, ""label"": ""Ti"", ""xyz"": [2.387374285, 1.688128585, 4.13505516]}, {""species"": [{""element"": ""Fe"", ""occu"": 1}], ""abc"": [0.25, 0.25, 0.25], ""properties"": {""magmom"": 0.0}, ""label"": ""Fe"", ""xyz"": [1.1936871425, 0.8440642925, 2.06752758]}, {""species"": [{""element"": ""Te"", ""occu"": 1}], ""abc"": [0.0, -0.0, -0.0], ""properties"": {""magmom"": 0.0}, ""label"": ""Te"", ""xyz"": [0.0, 0.0, 0.0]}]}",TiFeTe,216,0.9642999999999996,0.0,0.1448535915458951,0.9725994298468184,0.0759008388040066
mp-571093,"{""@module"": ""pymatgen.core.structure"", ""@class"": ""Structure"", ""charge"": 0, ""lattice"": {""matrix"": [[-2.167113999999999, -3.753551, 0.0], [-2.167113999999999, 3.753551, 0.0], [0.0, 0.0, -5.262552]], ""pbc"": [true, true, true], ""a"": 4.334227520400492, ""b"": 4.334227520400492, ""c"": 5.262552, ""alpha"": 90.0, ""beta"": 90.0, ""gamma"": 119.99999267919176, ""volume"": 85.61512097687617}, ""properties"": {}, ""sites"": [{""species"": [{""element"": ""Ba"", ""occu"": 1}], ""abc"": [0.0, 0.0, 0.000435999999999], ""properties"": {""magmom"": 0.0}, ""label"": ""Ba"", ""xyz"": [0.0, 0.0, -0.0022944726719947377]}, {""species"": [{""element"": ""Al"", ""occu"": 1}], ""abc"": [0.666667, 0.333333, 0.465248], ""properties"": {""magmom"": -0.0}, ""label"": ""Al"", ""xyz"": [-2.167113999999999, -1.2511861690339998, -2.448391792896]}, {""species"": [{""element"": ""Si"", ""occu"": 1}], ""abc"": [0.333333, 0.666667, 0.542307], ""properties"": {""magmom"": -0.0}, ""label"": ""Si"", ""xyz"": [-2.167113999999999, 1.2511861690339998, -2.853918787464]}, {""species"": [{""element"": ""H"", ""occu"": 1}], ""abc"": [0.666667, 0.333333, 0.13491], ""properties"": {""magmom"": 0.0}, ""label"": ""H"", ""xyz"": [-2.167113999999999, -1.2511861690339998, -0.70997089032]}]}",BaAlSiH,156,0.7496999999999998,0.0,0.3135021734175346,1.1577319190198645,0.0833414460694665
mp-972965,"{""@module"": ""pymatgen.core.structure"", ""@class"": ""Structure"", ""charge"": 0, ""lattice"": {""matrix"": [[-0.0, 2.79913507, 2.79913507], [2.79913507, -0.0, 2.79913507], [2.79913507, 2.79913507, 0.0]], ""pbc"": [true, true, true], ""a"": 3.958574778908163, ""b"": 3.958574778908163, ""c"": 3.958574778908163, ""alpha"": 59.99999999999999, ""beta"": 59.99999999999999, ""gamma"": 59.99999999999999, ""volume"": 43.863326259651494}, ""properties"": {}, ""sites"": [{""species"": [{""element"": ""Gd"", ""occu"": 1}], ""abc"": [0.749999, 0.749999, 0.749999], ""properties"": {""magmom"": -6.873}, ""label"": ""Gd"", ""xyz"": [4.19869700672986, 4.19869700672986, 4.19869700672986]}, {""species"": [{""element"": ""F"", ""occu"": 1}], ""abc"": [-0.0, -0.0, -0.0], ""properties"": {""magmom"": 0.01}, ""label"": ""F"", ""xyz"": [0.0, 0.0, 0.0]}, {""species"": [{""element"": ""F"", ""occu"": 1}], ""abc"": [0.499998999999999, 0.499998999999999, 0.499998999999999], ""properties"": {""magmom"": 0.01}, ""label"": ""F"", ""xyz"": [2.799129471729855, 2.799129471729855, 2.799129471729855]}, {""species"": [{""element"": ""F"", ""occu"": 1}], ""abc"": [0.25, 0.25, 0.25], ""properties"": {""magmom"": 0.03}, ""label"": ""F"", ""xyz"": [1.399567535, 1.399567535, 1.399567535]}]}",GdF3,225,2.8739,0.0,0.002881779927043,0.0048955402724008,0.0018326183577548
mp-865427,"{""@module"": ""pymatgen.core.structure"", ""@class"": ""Structure"", ""charge"": 0, ""lattice"": {""matrix"": [[0.0, 0.0, -4.766392], [-2.657132, -4.6022870000000005, 0.0], [-2.657132, 4.6022870000000005, 0.0]], ""pbc"": [true, true, true], ""a"": 4.766392, ""b"": 5.314263457506883, ""c"": 5.314263457506883, ""alpha"": 119.99999324627834, ""beta"": 90.0, ""gamma"": 90.0, ""volume"": 116.57531031345002}, ""properties"": {}, ""sites"": [{""species"": [{""element"": ""K"", ""occu"": 1}], ""abc"": [0.0, 0.666667, 0.333333], ""properties"": {""magmom"": 0.0}, ""label"": ""K"", ""xyz"": [-2.657132, -1.5340987348580004, 0.0]}, {""species"": [{""element"": ""Sr"", ""occu"": 1}], ""abc"": [0.5, 0.333333, 0.666667], ""properties"": {""magmom"": 0.0}, ""label"": ""Sr"", ""xyz"": [-2.657132, 1.5340987348580004, -2.383196]}, {""species"": [{""element"": ""C"", ""occu"": 1}], ""abc"": [0.5, 0.0, 0.0], ""properties"": {""magmom"": 0.0}, ""label"": ""C"", ""xyz"": [0.0, 0.0, -2.383196]}, {""species"": [{""element"": ""O"", ""occu"": 1}], ""abc"": [0.5, 0.283219, 0.14161], ""properties"": {""magmom"": -0.0}, ""label"": ""O"", ""xyz"": [-1.128826730428, -0.651725259783, -2.383196]}, {""species"": [{""element"": ""O"", ""occu"": 1}], ""abc"": [0.5, 0.8583900000000001, 0.14161], ""properties"": {""magmom"": -0.0}, ""label"": ""O"", ""xyz"": [-2.657132, -3.2988272758600004, -2.383196]}, {""species"": [{""element"": ""O"", ""occu"": 1}], ""abc"": [0.5, 0.8583900000000001, 0.716781], ""properties"": {""magmom"": -0.0}, ""label"": ""O"", ""xyz"": [-4.185437269572, -0.6517252597830003, -2.383196]}, {""species"": [{""element"": ""F"", ""occu"": 1}], ""abc"": [0.0, 0.333333, 0.666667], ""properties"": {""magmom"": 0.0}, ""label"": ""F"", ""xyz"": [-2.657132, 1.5340987348580004, 0.0]}]}",KSrCO3F,187,4.0929,0.0,0.0010145155731647,0.0014949482165811,0.0006987448574537
mp-1183115,"{""@module"": ""pymatgen.core.structure"", ""@class"": ""Structure"", ""charge"": 0, ""lattice"": {""matrix"": [[3.8586338700000002, -0.0, 0.0], [-0.0, 3.8586338700000002, 0.0], [-0.0, -0.0, 3.8586338700000002]], ""pbc"": [true, true, true], ""a"": 3.8586338700000002, ""b"": 3.8586338700000002, ""c"": 3.8586338700000002, ""alpha"": 90.0, ""beta"": 90.0, ""gamma"": 90.0, ""volume"": 57.45141323768982}, ""properties"": {}, ""sites"": [{""species"": [{""element"": ""Ac"", ""occu"": 1}], ""abc"": [-0.0, 0.0, 0.0], ""properties"": {""magmom"": 0.0}, ""label"": ""Ac"", ""xyz"": [0.0, 0.0, 0.0]}, {""species"": [{""element"": ""Al"", ""occu"": 1}], ""abc"": [0.5, 0.5, 0.5], ""properties"": {""magmom"": -0.0}, ""label"": ""Al"", ""xyz"": [1.9293169350000001, 1.9293169350000001, 1.9293169350000001]}, {""species"": [{""element"": ""O"", ""occu"": 1}], ""abc"": [0.5, 0.5, 0.0], ""properties"": {""magmom"": 0.0}, ""label"": ""O"", ""xyz"": [1.9293169350000001, 1.9293169350000001, 0.0]}, {""species"": [{""element"": ""O"", ""occu"": 1}], ""abc"": [0.5, 0.0, 0.5], ""properties"": {""magmom"": 0.0}, ""label"": ""O"", ""xyz"": [1.9293169350000001, 0.0, 1.9293169350000001]}, {""species"": [{""element"": ""O"", ""occu"": 1}], ""abc"": [0.0, 0.5, 0.5], ""properties"": {""magmom"": 0.0}, ""label"": ""O"", ""xyz"": [0.0, 1.9293169350000001, 1.9293169350000001]}]}",AcAlO3,221,4.107399999999999,0.0,0.0022327047582901,0.0032239786286034,0.0015323878309604
mp-549709,"{""@module"": ""pymatgen.core.structure"", ""@class"": ""Structure"", ""charge"": 0.0, ""lattice"": {""matrix"": [[3.84189573, 0.0, 0.0], [0.0, 3.84189573, 0.0], [0.0, -0.0, 8.93974821]], ""pbc"": [true, true, true], ""a"": 3.84189573, ""b"": 3.84189573, ""c"": 8.93974821, ""alpha"": 90.0, ""beta"": 90.0, ""gamma"": 90.0, ""volume"": 131.9521389723271}, ""properties"": {}, ""sites"": [{""species"": [{""element"": ""Er"", ""occu"": 1}], ""abc"": [0.0, 0.0, 0.0], ""properties"": {""magmom"": 0.0}, ""label"": ""Er"", ""xyz"": [0.0, 0.0, 0.0]}, {""species"": [{""element"": ""Bi"", ""occu"": 1}], ""abc"": [0.5, 0.5, 0.27716386], ""properties"": {""magmom"": 0.0}, ""label"": ""Bi"", ""xyz"": [1.920947865, 1.920947865, 2.4777751213116903]}, {""species"": [{""element"": ""Bi"", ""occu"": 1}], ""abc"": [0.5, 0.5, 0.72283614], ""properties"": {""magmom"": 0.0}, ""label"": ""Bi"", ""xyz"": [1.920947865, 1.920947865, 6.461973088688309]}, {""species"": [{""element"": ""Cl"", ""occu"": 1}], ""abc"": [0.0, 0.0, 0.5], ""properties"": {""magmom"": -0.0}, ""label"": ""Cl"", ""xyz"": [0.0, 0.0, 4.469874105]}, {""species"": [{""element"": ""O"", ""occu"": 1}], ""abc"": [0.5, 0.0, 0.84845515], ""properties"": {""magmom"": 0.0}, ""label"": ""O"", ""xyz"": [1.920947865, 0.0, 7.584975408477781]}, {""species"": [{""element"": ""O"", ""occu"": 1}], ""abc"": [-0.0, 0.5, 0.84845515], ""properties"": {""magmom"": 0.0}, ""label"": ""O"", ""xyz"": [0.0, 1.920947865, 7.584975408477781]}, {""species"": [{""element"": ""O"", ""occu"": 1}], ""abc"": [0.5, -0.0, 0.15154485], ""properties"": {""magmom"": 0.0}, ""label"": ""O"", ""xyz"": [1.920947865, 0.0, 1.3547728015222185]}, {""species"": [{""element"": ""O"", ""occu"": 1}], ""abc"": [0.0, 0.5, 0.15154485], ""properties"": {""magmom"": 0.0}, ""label"": ""O"", ""xyz"": [0.0, 1.920947865, 1.3547728015222185]}]}",ErBi2ClO4,123,1.4551999999999996,0.0,0.009968968143249,0.0309937656804903,0.006250628327183
mp-15789,"{""@module"": ""pymatgen.core.structure"", ""@class"": ""Structure"", ""charge"": 0, ""lattice"": {""matrix"": [[6.24120581, -1.94937367, -0.0028424500000000003], [6.24120581, 1.94937367, -0.0028424500000000003], [5.63385321, -0.0, 3.31849676]], ""pbc"": [true, true, true], ""a"": 6.538556090421572, ""b"": 6.538556090421572, ""c"": 6.538556624971432, ""alpha"": 34.69126194980975, ""beta"": 34.69126194980975, ""gamma"": 34.691265517043576, ""volume"": 80.81103287065233}, ""properties"": {}, ""sites"": [{""species"": [{""element"": ""Li"", ""occu"": 1}], ""abc"": [0.5, 0.5, 0.5], ""properties"": {""magmom"": -0.0}, ""label"": ""Li"", ""xyz"": [9.058132415, 0.0, 1.65640593]}, {""species"": [{""element"": ""Dy"", ""occu"": 1}], ""abc"": [-0.0, -0.0, 0.0], ""properties"": {""magmom"": 0.0}, ""label"": ""Dy"", ""xyz"": [0.0, 0.0, 0.0]}, {""species"": [{""element"": ""S"", ""occu"": 1}], ""abc"": [0.24977769, 0.24977769, 0.24977769], ""properties"": {""magmom"": 0.0}, ""label"": ""S"", ""xyz"": [4.525038780665643, 0.0, 0.8274664937954034]}, {""species"": [{""element"": ""S"", ""occu"": 1}], ""abc"": [0.7502223100000001, 0.7502223100000001, 0.7502223100000001], ""properties"": {""magmom"": 0.0}, ""label"": ""S"", ""xyz"": [13.59122604933436, 0.0, 2.4853453662045966]}]}",LiDyS2,166,1.9275,0.0,0.0113225013958386,0.0193985422732476,0.0075009120022744