id,structure_json,formula,spacegroup,bandgap,energy_above_hull,k_1064,k_755,k_1500
mp-1153,"{""@module"": ""pymatgen.core.structure"", ""@class"": ""Structure"", ""charge"": 0, ""lattice"": {""matrix"": [[3.472358, 0.0, 2.004767], [1.157452, 3.273769, 2.004767], [0.0, 0.0, 4.009533]], ""pbc"": [true, true, true], ""a"": 4.009533739034128, ""b"": 4.009532307134338, ""c"": 4.009533, ""alpha"": 59.99998603339616, ""beta"": 59.999997846961215, ""gamma"": 59.99999627767066, ""volume"": 45.579160174025624}, ""properties"": {}, ""sites"": [{""species"": [{""element"": ""Li"", ""occu"": 1}], ""abc"": [0.25, 0.25, 0.25], ""properties"": {""magmom"": -0.0}, ""label"": ""Li"", ""xyz"": [1.1574525, 0.81844225, 2.00476675]}, {""species"": [{""element"": ""Li"", ""occu"": 1}], ""abc"": [0.75, 0.75, 0.75], ""properties"": {""magmom"": -0.0}, ""label"": ""Li"", ""xyz"": [3.4723574999999998, 2.4553267500000002, 6.01430025]}, {""species"": [{""element"": ""S"", ""occu"": 1}], ""abc"": [0.0, 0.0, 0.0], ""properties"": {""magmom"": 0.0}, ""label"": ""S"", ""xyz"": [0.0, 0.0, 0.0]}]}",Li2S,225,3.3763,0.0,0.0041668946885108,0.0060777852701108,0.002873871647405
mp-998762,"{""@module"": ""pymatgen.core.structure"", ""@class"": ""Structure"", ""charge"": 0, ""lattice"": {""matrix"": [[-1.72944686, 2.44558888, 2.99202643], [-3.46417572, -2.438283069999999, -0.00903472], [1.71882691, -2.45263132, 2.99484454]], ""pbc"": [true, true, true], ""a"": 4.233687939534757, ""b"": 4.236250626987457, ""c"": 4.235429158556769, ""alpha"": 90.00372535545917, ""beta"": 90.03225190715912, ""gamma"": 89.99668479859609, ""volume"": 75.96225372325313}, ""properties"": {}, ""sites"": [{""species"": [{""element"": ""Mn"", ""occu"": 1}], ""abc"": [0.51191053, 0.49982557, 0.5022307], ""properties"": {""magmom"": 4.625}, ""label"": ""Mn"", ""xyz"": [-1.7535580203504586, -1.1985802702467172, 3.0312369211968955]}, {""species"": [{""element"": ""Tl"", ""occu"": 1}], ""abc"": [0.0093232, 0.99807418, 0.00498529], ""properties"": {""magmom"": -0.002}, ""label"": ""Tl"", ""xyz"": [-3.465059469473908, -2.4230137398453984, 0.033808108593463004]}, {""species"": [{""element"": ""F"", ""occu"": 1}], ""abc"": [0.51357961, 1.00013261, 0.50247642], ""properties"": {""magmom"": 0.058}, ""label"": ""F"", ""xyz"": [-3.489173755880292, -2.4149912327606495, 3.03244661185062]}, {""species"": [{""element"": ""F"", ""occu"": 1}], ""abc"": [0.012326140000000001, 0.50221212, 0.49858842000000003], ""properties"": {""magmom"": 0.058}, ""label"": ""F"", ""xyz"": [-0.9040812432022648, -2.4172442135087993, 1.5255375981193007]}, {""species"": [{""element"": ""F"", ""occu"": 1}], ""abc"": [0.51286352, 0.49975752, 0.0017121600000000001], ""properties"": {""magmom"": 0.058}, ""label"": ""F"", ""xyz"": [-2.615275164261736, 0.0315037241076205, 1.5351136905893457]}]}",MnTlF3,221,1.2591000000000006,0.0,0.0044232336582065,0.0078916660614453,0.0029064330685291
mp-1207080,"{""@module"": ""pymatgen.core.structure"", ""@class"": ""Structure"", ""charge"": 0, ""lattice"": {""matrix"": [[1.92550615, -3.33507571, 0.0], [1.92550615, 3.33507571, -0.0], [-0.0, -0.0, 3.92038104]], ""pbc"": [true, true, true], ""a"": 3.8510133634044723, ""b"": 3.8510133634044723, ""c"": 3.92038104, ""alpha"": 90.0, ""beta"": 90.0, ""gamma"": 120.00001826902785, ""volume"": 50.351090771948556}, ""properties"": {}, ""sites"": [{""species"": [{""element"": ""Tb"", ""occu"": 1}], ""abc"": [0.0, 0.0, -0.0], ""properties"": {""magmom"": 0.0}, ""label"": ""Tb"", ""xyz"": [0.0, 0.0, 0.0]}, {""species"": [{""element"": ""H"", ""occu"": 1}], ""abc"": [0.333333, 0.666667, -0.0], ""properties"": {""magmom"": 0.0}, ""label"": ""H"", ""xyz"": [1.92550615, 1.1116941267171399, 0.0]}, {""species"": [{""element"": ""Se"", ""occu"": 1}], ""abc"": [0.666667, 0.333333, 0.5], ""properties"": {""magmom"": -0.0}, ""label"": ""Se"", ""xyz"": [1.92550615, -1.1116941267171399, 1.96019052]}]}",TbHSe,187,1.5078999999999998,0.0,0.0189532907541858,0.0389800683619949,0.0119268813944101
mp-938,"{""@module"": ""pymatgen.core.structure"", ""@class"": ""Structure"", ""charge"": 0, ""lattice"": {""matrix"": [[3.7166743, 0.041400980000000004, 2.35988507], [1.31776065, 3.47546919, 2.35988506], [0.05926534, 0.04140096, 4.40218144]], ""pbc"": [true, true, true], ""a"": 4.40277633284208, ""b"": 4.402776024026078, ""c"": 4.402775017042628, ""alpha"": 56.81262633501402, ""beta"": 56.81263335537376, ""gamma"": 56.81261992383447, ""volume"": 55.908968810771796}, ""properties"": {}, ""sites"": [{""species"": [{""element"": ""Ge"", ""occu"": 1}], ""abc"": [0.99222319, 0.99222319, 0.99222319], ""properties"": {""magmom"": 0.0}, ""label"": ""Ge"", ""xyz"": [5.054087550647725, 3.530599131493505, 9.051011885810908]}, {""species"": [{""element"": ""Te"", ""occu"": 1}], ""abc"": [0.52877681, 0.52877681, 0.52877681], ""properties"": {""magmom"": -0.0}, ""label"": ""Te"", ""xyz"": [2.6934305904422753, 1.881531257236495, 4.823476452159092]}]}",GeTe,160,0.6151999999999997,0.0,1.7587332788767345,5.406998393339031,0.6024380870228132
mp-12317,"{""@module"": ""pymatgen.core.structure"", ""@class"": ""Structure"", ""charge"": 0, ""lattice"": {""matrix"": [[3.7181139, 0.0044456700000000005, 4.10077614], [1.58526101, 3.36323282, 4.10077614], [0.00700173, 0.0044456800000000005, 5.53540297]], ""pbc"": [true, true, true], ""a"": 5.535409261088854, ""b"": 5.535408966078719, ""c"": 5.5354091834821455, ""alpha"": 42.1256512865084, ""beta"": 42.12565029392072, ""gamma"": 42.12565797624934, ""volume"": 69.04523105497147}, ""properties"": {}, ""sites"": [{""species"": [{""element"": ""Sr"", ""occu"": 1}], ""abc"": [0.5, 0.5, 0.5], ""properties"": {""magmom"": -0.0}, ""label"": ""Sr"", ""xyz"": [2.65518832, 1.6860620849999999, 6.868477625]}, {""species"": [{""element"": ""C"", ""occu"": 1}], ""abc"": [0.0, -0.0, -0.0], ""properties"": {""magmom"": -0.0}, ""label"": ""C"", ""xyz"": [0.0, 0.0, 0.0]}, {""species"": [{""element"": ""N"", ""occu"": 1}], ""abc"": [0.08155987, 0.08155987, 0.08155987], ""properties"": {""magmom"": 0.0}, ""label"": ""N"", ""xyz"": [0.4331136284094369, 0.2750300089290579, 1.1203842843858176]}, {""species"": [{""element"": ""N"", ""occu"": 1}], ""abc"": [0.91844013, 0.91844013, 0.91844013], ""properties"": {""magmom"": 0.0}, ""label"": ""N"", ""xyz"": [4.877263011590563, 3.097094161070942, 12.616570965614182]}]}",SrCN2,166,3.2363000000000004,0.000506667499999,0.0032034600550451,0.004827008051441,0.0021290169986197
mp-2784,"{""@module"": ""pymatgen.core.structure"", ""@class"": ""Structure"", ""charge"": 0, ""lattice"": {""matrix"": [[4.44947416, 0.0, 2.56890501], [1.4831580500000001, 4.19500208, 2.56890501], [0.0, 0.0, 5.13780802]], ""pbc"": [true, true, true], ""a"": 5.1378101610424265, ""b"": 5.137808210013997, ""c"": 5.13780802, ""alpha"": 59.9999883464201, ""beta"": 60.0000009081001, ""gamma"": 59.99998808089255, ""volume"": 95.90002973074063}, ""properties"": {}, ""sites"": [{""species"": [{""element"": ""Na"", ""occu"": 1}], ""abc"": [0.25, 0.25, 0.25], ""properties"": {""magmom"": -0.0}, ""label"": ""Na"", ""xyz"": [1.4831580525, 1.04875052, 2.56890451]}, {""species"": [{""element"": ""Na"", ""occu"": 1}], ""abc"": [0.75, 0.75, 0.75], ""properties"": {""magmom"": -0.0}, ""label"": ""Na"", ""xyz"": [4.4494741575, 3.14625156, 7.70671353]}, {""species"": [{""element"": ""Te"", ""occu"": 1}], ""abc"": [0.0, -0.0, 0.0], ""properties"": {""magmom"": 0.0}, ""label"": ""Te"", ""xyz"": [0.0, 0.0, 0.0]}]}",Na2Te,225,2.0369,0.0,0.0129085387998038,0.0256312981084634,0.0081560774786044
mp-736,"{""@module"": ""pymatgen.core.structure"", ""@class"": ""Structure"", ""charge"": 0, ""lattice"": {""matrix"": [[4.21927393, -0.0, 0.0], [-2.10963747, 3.65399783, -0.0], [-0.0, 0.0, 7.54705753]], ""pbc"": [true, true, true], ""a"": 4.21927393, ""b"": 4.2192736811532745, ""c"": 7.54705753, ""alpha"": 90.0, ""beta"": 90.0, ""gamma"": 120.00000986954622, ""volume"": 116.35462957137251}, ""properties"": {}, ""sites"": [{""species"": [{""element"": ""Li"", ""occu"": 1}], ""abc"": [0.0, 0.0, 0.25], ""properties"": {""magmom"": 0.0}, ""label"": ""Li"", ""xyz"": [0.0, 0.0, 1.8867643825]}, {""species"": [{""element"": ""Li"", ""occu"": 1}], ""abc"": [-0.0, -0.0, 0.75], ""properties"": {""magmom"": 0.0}, ""label"": ""Li"", ""xyz"": [0.0, 0.0, 5.6602931475]}, {""species"": [{""element"": ""Li"", ""occu"": 1}], ""abc"": [0.333333, 0.666667, 0.58360181], ""properties"": {""magmom"": 0.0}, ""label"": ""Li"", ""xyz"": [-2.4463037999744586e-06, 2.43599977133261, 4.404476434682129]}, {""species"": [{""element"": ""Li"", ""occu"": 1}], ""abc"": [0.666667, 0.333333, 0.08360181], ""properties"": {""magmom"": 0.0}, ""label"": ""Li"", ""xyz"": [2.1096389063038004, 1.21799805866739, 0.6309476696821293]}, {""species"": [{""element"": ""Li"", ""occu"": 1}], ""abc"": [0.666667, 0.333333, 0.41639819], ""properties"": {""magmom"": 0.0}, ""label"": ""Li"", ""xyz"": [2.1096389063038004, 1.21799805866739, 3.1425810953178708]}, {""species"": [{""element"": ""Li"", ""occu"": 1}], ""abc"": [0.333333, 0.666667, 0.91639819], ""properties"": {""magmom"": 0.0}, ""label"": ""Li"", ""xyz"": [-2.4463037999744586e-06, 2.43599977133261, 6.916109860317871]}, {""species"": [{""element"": ""P"", ""occu"": 1}], ""abc"": [0.333333, 0.666667, 0.25], ""properties"": {""magmom"": 0.0}, ""label"": ""P"", ""xyz"": [-2.4463037999744586e-06, 2.43599977133261, 1.8867643825]}, {""species"": [{""element"": ""P"", ""occu"": 1}], ""abc"": [0.666667, 0.333333, 0.75], ""properties"": {""magmom"": 0.0}, ""label"": ""P"", ""xyz"": [2.1096389063038004, 1.21799805866739, 5.6602931475]}]}",Li3P,194,0.7634999999999998,0.0,0.0228447623371242,0.0471438118065837,0.0143912902312223
mp-8348,"{""@module"": ""pymatgen.core.structure"", ""@class"": ""Structure"", ""charge"": 0, ""lattice"": {""matrix"": [[5.09676062, -0.05611091, -0.58586766], [-0.65067239, 5.05536791, -0.58586766], [-0.04990151, -0.05611091, 5.13008007]], ""pbc"": [true, true, true], ""a"": 5.130629412346763, ""b"": 5.130629608498352, ""c"": 5.130629602644544, ""alpha"": 97.1068733442057, ""beta"": 97.10686453151189, ""gamma"": 97.10687805617886, ""volume"": 131.65596902052295}, ""properties"": {}, ""sites"": [{""species"": [{""element"": ""Tl"", ""occu"": 1}], ""abc"": [0.0, 0.0, 0.0], ""properties"": {""magmom"": 0.0}, ""label"": ""Tl"", ""xyz"": [0.0, 0.0, 0.0]}, {""species"": [{""element"": ""Sb"", ""occu"": 1}], ""abc"": [0.5, 0.5, 0.5], ""properties"": {""magmom"": 0.0}, ""label"": ""Sb"", ""xyz"": [2.1980933600000006, 2.471573045, 1.979172375]}, {""species"": [{""element"": ""F"", ""occu"": 1}], ""abc"": [0.76012142, 0.76012142, 0.41479963000000003], ""properties"": {""magmom"": -0.0}, ""label"": ""F"", ""xyz"": [3.3588677709484456, 3.776767545077977, 1.23729419960382]}, {""species"": [{""element"": ""F"", ""occu"": 1}], ""abc"": [0.76012142, 0.41479963000000003, 0.76012142], ""properties"": {""magmom"": -0.0}, ""label"": ""F"", ""xyz"": [3.5663270466099206, 2.011662529408489, 3.2111355012738567]}, {""species"": [{""element"": ""F"", ""occu"": 1}], ""abc"": [0.23987858, 0.58520037, 0.23987858], ""properties"": {""magmom"": -0.0}, ""label"": ""F"", ""xyz"": [0.8298596733900796, 2.9314835605915115, 0.7472092487261436]}, {""species"": [{""element"": ""F"", ""occu"": 1}], ""abc"": [0.23987858, 0.23987858, 0.58520037], ""properties"": {""magmom"": -0.0}, ""label"": ""F"", ""xyz"": [1.0373189490515549, 1.1663785449220234, 2.7210505503961806]}, {""species"": [{""element"": ""F"", ""occu"": 1}], ""abc"": [0.58520037, 0.23987858, 0.23987858], ""properties"": {""magmom"": -0.0}, ""label"": ""F"", ""xyz"": [2.814573528308368, 1.1663785449220234, 0.7472092487261436]}, {""species"": [{""element"": ""F"", ""occu"": 1}], ""abc"": [0.41479963000000003, 0.76012142, 0.76012142], ""properties"": {""magmom"": -0.0}, ""label"": ""F"", ""xyz"": [1.581613191691633, 3.776767545077977, 3.2111355012738567]}]}",TlSbF6,166,4.3226,0.0,0.0017175306227281,0.0025962378114796,0.0011798438195638
mp-8188,"{""@module"": ""pymatgen.core.structure"", ""@class"": ""Structure"", ""charge"": 0, ""lattice"": {""matrix"": [[3.11441488, -0.0018196, 5.57355804], [1.45017671, 2.75618827, 5.57355804], [-0.00301601, -0.00181959, 6.38467912]], ""pbc"": [true, true, true], ""a"": 6.384679520614815, ""b"": 6.384679748833191, ""c"": 6.384680091640306, ""alpha"": 29.222824069005203, ""beta"": 29.2228230434236, ""gamma"": 29.222828649170054, ""volume"": 54.885622347634005}, ""properties"": {}, ""sites"": [{""species"": [{""element"": ""K"", ""occu"": 1}], ""abc"": [-0.0, -0.0, -0.0], ""properties"": {""magmom"": 0.0}, ""label"": ""K"", ""xyz"": [0.0, 0.0, 0.0]}, {""species"": [{""element"": ""Sc"", ""occu"": 1}], ""abc"": [0.5, 0.5, 0.5], ""properties"": {""magmom"": 0.0}, ""label"": ""Sc"", ""xyz"": [2.28078779, 1.3762745399999998, 8.7658976]}, {""species"": [{""element"": ""O"", ""occu"": 1}], ""abc"": [0.77382971, 0.77382971, 0.77382971], ""properties"": {""magmom"": -0.0}, ""label"": ""O"", ""xyz"": [3.529882708214482, 2.130004256337167, 13.566623995395393]}, {""species"": [{""element"": ""O"", ""occu"": 1}], ""abc"": [0.22617029, 0.22617029, 0.22617029], ""properties"": {""magmom"": -0.0}, ""label"": ""O"", ""xyz"": [1.0316928717855183, 0.6225448236628331, 3.965171204604608]}]}",KScO2,166,3.6259,0.0,0.0035221535732125,0.0052605769787371,0.0023491649347127
mp-9562,"{""@module"": ""pymatgen.core.structure"", ""@class"": ""Structure"", ""charge"": 0, ""lattice"": {""matrix"": [[3.73657199, -0.0, -0.0], [0.0, 3.73657199, 0.0], [0.0, -0.0, 6.16510828]], ""pbc"": [true, true, true], ""a"": 3.73657199, ""b"": 3.73657199, ""c"": 6.16510828, ""alpha"": 90.0, ""beta"": 90.0, ""gamma"": 90.0, ""volume"": 86.07705830986724}, ""properties"": {}, ""sites"": [{""species"": [{""element"": ""Li"", ""occu"": 1}], ""abc"": [0.25, 0.25, 0.34689442], ""properties"": {""magmom"": 0.0}, ""label"": ""Li"", ""xyz"": [0.9341429975, 0.9341429975, 2.1386416610277976]}, {""species"": [{""element"": ""Li"", ""occu"": 1}], ""abc"": [0.75, 0.75, 0.65310558], ""properties"": {""magmom"": 0.0}, ""label"": ""Li"", ""xyz"": [2.8024289925, 2.8024289925, 4.0264666189722025]}, {""species"": [{""element"": ""Be"", ""occu"": 1}], ""abc"": [0.25, 0.75, 0.0], ""properties"": {""magmom"": 0.0}, ""label"": ""Be"", ""xyz"": [0.9341429975, 2.8024289925, 0.0]}, {""species"": [{""element"": ""Be"", ""occu"": 1}], ""abc"": [0.75, 0.25, 0.0], ""properties"": {""magmom"": 0.0}, ""label"": ""Be"", ""xyz"": [2.8024289925, 0.9341429975, 0.0]}, {""species"": [{""element"": ""As"", ""occu"": 1}], ""abc"": [0.25, 0.25, 0.77650437], ""properties"": {""magmom"": -0.0}, ""label"": ""As"", ""xyz"": [0.9341429975, 0.9341429975, 4.787233520943184]}, {""species"": [{""element"": ""As"", ""occu"": 1}], ""abc"": [0.75, 0.75, 0.22349563], ""properties"": {""magmom"": -0.0}, ""label"": ""As"", ""xyz"": [2.8024289925, 2.8024289925, 1.3778747590568163]}]}",LiBeAs,129,1.0008999999999997,0.0,0.0222979386906961,0.0417966679111329,0.0134669661034866
mp-552738,"{""@module"": ""pymatgen.core.structure"", ""@class"": ""Structure"", ""charge"": 0, ""lattice"": {""matrix"": [[3.921361, 0.0, 0.0], [0.0, 3.921361, 0.0], [0.0, 0.0, 9.673146]], ""pbc"": [true, true, true], ""a"": 3.921361, ""b"": 3.921361, ""c"": 9.673146, ""alpha"": 90.0, ""beta"": 90.0, ""gamma"": 90.0, ""volume"": 148.74466340154652}, ""properties"": {}, ""sites"": [{""species"": [{""element"": ""Tm"", ""occu"": 1}], ""abc"": [0.0, 0.0, 0.0], ""properties"": {""magmom"": 0.0}, ""label"": ""Tm"", ""xyz"": [0.0, 0.0, 0.0]}, {""species"": [{""element"": ""Bi"", ""occu"": 1}], ""abc"": [0.5, 0.5, 0.255693], ""properties"": {""magmom"": -0.0}, ""label"": ""Bi"", ""xyz"": [1.9606805, 1.9606805, 2.4733557201779997]}, {""species"": [{""element"": ""Bi"", ""occu"": 1}], ""abc"": [0.5, 0.5, 0.744306999999999], ""properties"": {""magmom"": -0.0}, ""label"": ""Bi"", ""xyz"": [1.9606805, 1.9606805, 7.199790279821991]}, {""species"": [{""element"": ""I"", ""occu"": 1}], ""abc"": [0.0, 0.0, 0.5], ""properties"": {""magmom"": 0.001}, ""label"": ""I"", ""xyz"": [0.0, 0.0, 4.836573]}, {""species"": [{""element"": ""O"", ""occu"": 1}], ""abc"": [0.0, 0.5, 0.139542], ""properties"": {""magmom"": 0.0}, ""label"": ""O"", ""xyz"": [0.0, 1.9606805, 1.3498101391319999]}, {""species"": [{""element"": ""O"", ""occu"": 1}], ""abc"": [0.5, 0.0, 0.860458], ""properties"": {""magmom"": 0.0}, ""label"": ""O"", ""xyz"": [1.9606805, 0.0, 8.323335860868]}, {""species"": [{""element"": ""O"", ""occu"": 1}], ""abc"": [0.5, 0.0, 0.139542], ""properties"": {""magmom"": 0.0}, ""label"": ""O"", ""xyz"": [1.9606805, 0.0, 1.3498101391319999]}, {""species"": [{""element"": ""O"", ""occu"": 1}], ""abc"": [0.0, 0.5, 0.860458], ""properties"": {""magmom"": 0.0}, ""label"": ""O"", ""xyz"": [0.0, 1.9606805, 8.323335860868]}]}",TmBi2IO4,123,1.4051,0.0,0.0155925890147361,0.0371148992934002,0.0094358126148552
mp-5878,"{""@module"": ""pymatgen.core.structure"", ""@class"": ""Structure"", ""charge"": 0, ""lattice"": {""matrix"": [[4.04741679, 0.0, 0.0], [0.0, 4.04741679, 0.0], [-0.0, -0.0, 4.04741679]], ""pbc"": [true, true, true], ""a"": 4.04741679, ""b"": 4.04741679, ""c"": 4.04741679, ""alpha"": 90.0, ""beta"": 90.0, ""gamma"": 90.0, ""volume"": 66.30309275332023}, ""properties"": {}, ""sites"": [{""species"": [{""element"": ""K"", ""occu"": 1}], ""abc"": [-0.0, 0.0, -0.0], ""properties"": {""magmom"": 0.0}, ""label"": ""K"", ""xyz"": [0.0, 0.0, 0.0]}, {""species"": [{""element"": ""Zn"", ""occu"": 1}], ""abc"": [0.5, 0.5, 0.5], ""properties"": {""magmom"": 0.0}, ""label"": ""Zn"", ""xyz"": [2.023708395, 2.023708395, 2.023708395]}, {""species"": [{""element"": ""F"", ""occu"": 1}], ""abc"": [0.0, 0.5, 0.5], ""properties"": {""magmom"": -0.0}, ""label"": ""F"", ""xyz"": [0.0, 2.023708395, 2.023708395]}, {""species"": [{""element"": ""F"", ""occu"": 1}], ""abc"": [0.5, -0.0, 0.5], ""properties"": {""magmom"": -0.0}, ""label"": ""F"", ""xyz"": [2.023708395, 0.0, 2.023708395]}, {""species"": [{""element"": ""F"", ""occu"": 1}], ""abc"": [0.5, 0.5, 0.0], ""properties"": {""magmom"": -0.0}, ""label"": ""F"", ""xyz"": [2.023708395, 2.023708395, 0.0]}]}",KZnF3,221,3.7287,0.0,0.0009687503359983,0.0014156762071695,0.0006470086199725
mp-1029330,"{""@module"": ""pymatgen.core.structure"", ""@class"": ""Structure"", ""charge"": 0, ""lattice"": {""matrix"": [[3.60177878, -4.07e-06, 6.099999999999997e-06], [-1.80089396, 3.11923939, -0.0], [7.15e-06, 4.08e-06, 6.61464154]], ""pbc"": [true, true, true], ""a"": 3.601778780007465, ""b"": 3.601787532225083, ""c"": 6.614641540005123, ""alpha"": 90.00000036048372, ""beta"": 89.99984103043634, ""gamma"": 120.00006830544763, ""volume"": 74.31419405511588}, ""properties"": {}, ""sites"": [{""species"": [{""element"": ""Hf"", ""occu"": 1}], ""abc"": [0.666663999999999, 0.333331999999999, 0.69481896], ""properties"": {""magmom"": 0.0}, ""label"": ""Hf"", ""xyz"": [1.8008856310707624, 1.0397424258863537, 4.595982422245998]}, {""species"": [{""element"": ""Hf"", ""occu"": 1}], ""abc"": [0.333335999999999, 0.666667999999999, 0.30518104], ""properties"": {""magmom"": 0.0}, ""label"": ""Hf"", ""xyz"": [6.338929234378613e-06, 2.07949697411364, 2.0186652177540014]}, {""species"": [{""element"": ""Se"", ""occu"": 1}], ""abc"": [0.0, 0.0, -0.0], ""properties"": {""magmom"": 0.0}, ""label"": ""Se"", ""xyz"": [0.0, 0.0, 0.0]}, {""species"": [{""element"": ""N"", ""occu"": 1}], ""abc"": [0.666667, 0.333333, 0.36922095], ""properties"": {""magmom"": -0.0}, ""label"": ""N"", ""xyz"": [1.8008923074873726, 1.039744216673656, 2.442268299976963]}, {""species"": [{""element"": ""N"", ""occu"": 1}], ""abc"": [0.333333, 0.666667, 0.63077905], ""properties"": {""magmom"": -0.0}, ""label"": ""N"", ""xyz"": [-3.3748737251220684e-07, 2.0794951833263444, 4.172379340023037]}]}",Hf2SeN2,164,0.6917,0.0,0.0180636317575083,0.032960344596114,0.0116350660308786