id,structure_json,formula,spacegroup,bandgap,energy_above_hull,k_1064,k_755,k_1500
mp-7738,"{""@module"": ""pymatgen.core.structure"", ""@class"": ""Structure"", ""charge"": 0, ""lattice"": {""matrix"": [[4.22076396, -1e-08, 0.0], [-2.11038249, 3.65528859, 0.0], [0.0, -0.0, 8.22761741]], ""pbc"": [true, true, true], ""a"": 4.22076396, ""b"": 4.220764022103438, ""c"": 8.22761741, ""alpha"": 90.0, ""beta"": 90.0, ""gamma"": 120.00000764314755, ""volume"": 126.93658909664725}, ""properties"": {}, ""sites"": [{""species"": [{""element"": ""La"", ""occu"": 1}], ""abc"": [0.333333, 0.666667, 0.25], ""properties"": {""magmom"": -0.0}, ""label"": ""La"", ""xyz"": [-2.4503821500765355e-06, 2.4368602750962, 2.0569043525]}, {""species"": [{""element"": ""La"", ""occu"": 1}], ""abc"": [0.666667, 0.333333, 0.75], ""properties"": {""magmom"": -0.0}, ""label"": ""La"", ""xyz"": [2.11038392038215, 1.2184283049037998, 6.1707130575]}, {""species"": [{""element"": ""Se"", ""occu"": 1}], ""abc"": [-0.0, 0.0, 0.5], ""properties"": {""magmom"": 0.0}, ""label"": ""Se"", ""xyz"": [0.0, 0.0, 4.113808705]}, {""species"": [{""element"": ""Se"", ""occu"": 1}], ""abc"": [-0.0, 0.0, 0.0], ""properties"": {""magmom"": 0.0}, ""label"": ""Se"", ""xyz"": [0.0, 0.0, 0.0]}, {""species"": [{""element"": ""F"", ""occu"": 1}], ""abc"": [0.666667, 0.333333, 0.25], ""properties"": {""magmom"": 0.0}, ""label"": ""F"", ""xyz"": [2.11038392038215, 1.2184283049037998, 2.0569043525]}, {""species"": [{""element"": ""F"", ""occu"": 1}], ""abc"": [0.333333, 0.666667, 0.75], ""properties"": {""magmom"": 0.0}, ""label"": ""F"", ""xyz"": [-2.4503821500765355e-06, 2.4368602750962, 6.1707130575]}]}",LaSeF,194,1.7255000000000005,0.0,0.015960998426344,0.0489846663873586,0.0099369882981342
mp-10930,"{""@module"": ""pymatgen.core.structure"", ""@class"": ""Structure"", ""charge"": 0, ""lattice"": {""matrix"": [[3.7862904200000003, 0.0, -0.0], [0.0, 3.7862904200000003, -0.0], [-0.0, -0.0, 6.82317797]], ""pbc"": [true, true, true], ""a"": 3.7862904200000003, ""b"": 3.7862904200000003, ""c"": 6.82317797, ""alpha"": 90.0, ""beta"": 90.0, ""gamma"": 90.0, ""volume"": 97.817046248551}, ""properties"": {}, ""sites"": [{""species"": [{""element"": ""Tb"", ""occu"": 1}], ""abc"": [0.75, 0.75, 0.77295644], ""properties"": {""magmom"": 0.0}, ""label"": ""Tb"", ""xyz"": [2.839717815, 2.839717815, 5.274019353177627]}, {""species"": [{""element"": ""Tb"", ""occu"": 1}], ""abc"": [0.25, 0.25, 0.22704356], ""properties"": {""magmom"": 0.0}, ""label"": ""Tb"", ""xyz"": [0.9465726050000001, 0.9465726050000001, 1.5491586168223732]}, {""species"": [{""element"": ""S"", ""occu"": 1}], ""abc"": [0.25, 0.25, 0.64594336], ""properties"": {""magmom"": -0.0}, ""label"": ""S"", ""xyz"": [0.9465726050000001, 0.9465726050000001, 4.407386503819779]}, {""species"": [{""element"": ""S"", ""occu"": 1}], ""abc"": [0.75, 0.75, 0.35405664000000003], ""properties"": {""magmom"": -0.0}, ""label"": ""S"", ""xyz"": [2.839717815, 2.839717815, 2.415791466180221]}, {""species"": [{""element"": ""F"", ""occu"": 1}], ""abc"": [0.25, 0.75, -0.0], ""properties"": {""magmom"": -0.0}, ""label"": ""F"", ""xyz"": [0.9465726050000001, 2.839717815, 0.0]}, {""species"": [{""element"": ""F"", ""occu"": 1}], ""abc"": [0.75, 0.25, 0.0], ""properties"": {""magmom"": -0.0}, ""label"": ""F"", ""xyz"": [2.839717815, 0.9465726050000001, 0.0]}]}",TbSF,129,1.2497999999999996,0.0,0.0140402678708329,0.0584184405482874,0.0071650417971913
mp-1220967,"{""@module"": ""pymatgen.core.structure"", ""@class"": ""Structure"", ""charge"": 0, ""lattice"": {""matrix"": [[2.078637, -3.600304, 0.0], [2.078637, 3.600304, 0.0], [0.0, 0.0, 7.041954]], ""pbc"": [true, true, true], ""a"": 4.157273225346754, ""b"": 4.157273225346754, ""c"": 7.041954, ""alpha"": 90.0, ""beta"": 90.0, ""gamma"": 119.99998767205209, ""volume"": 105.40009588523671}, ""properties"": {}, ""sites"": [{""species"": [{""element"": ""Na"", ""occu"": 1}], ""abc"": [0.333333, 0.666667, 0.973003], ""properties"": {""magmom"": 0.0}, ""label"": ""Na"", ""xyz"": [2.078637, 1.2001037335359999, 6.851842367861999]}, {""species"": [{""element"": ""Li"", ""occu"": 1}], ""abc"": [0.666667, 0.333333, 0.658978], ""properties"": {""magmom"": 0.0}, ""label"": ""Li"", ""xyz"": [2.078637, -1.2001037335359999, 4.640492763011999]}, {""species"": [{""element"": ""Cd"", ""occu"": 1}], ""abc"": [0.0, 0.0, 0.382181999999999], ""properties"": {""magmom"": 0.0}, ""label"": ""Cd"", ""xyz"": [0.0, 0.0, 2.691308063627993]}, {""species"": [{""element"": ""S"", ""occu"": 1}], ""abc"": [0.666667, 0.333333, 0.245109], ""properties"": {""magmom"": -0.0}, ""label"": ""S"", ""xyz"": [2.078637, -1.2001037335359999, 1.7260463029859998]}, {""species"": [{""element"": ""S"", ""occu"": 1}], ""abc"": [0.0, 0.0, 0.740729], ""properties"": {""magmom"": -0.0}, ""label"": ""S"", ""xyz"": [0.0, 0.0, 5.216179544466]}]}",NaLiCdS2,156,1.6534999999999995,0.0,0.015827890016335,0.0836840472556249,0.0086649454526024
mp-27743,"{""@module"": ""pymatgen.core.structure"", ""@class"": ""Structure"", ""charge"": 0, ""lattice"": {""matrix"": [[3.89707887, 1e-08, 1.7708028900000001], [1.94845885, 4.52095028, 0.88557767], [0.07828047, -0.00019324, 5.00135955]], ""pbc"": [true, true, true], ""a"": 4.280533447390971, ""b"": 5.001972724233712, ""c"": 5.001972132839339, ""alpha"": 79.4504770887732, ""beta"": 64.66660398074809, ""gamma"": 64.66662422561969, ""volume"": 87.48976145342536}, ""properties"": {}, ""sites"": [{""species"": [{""element"": ""Bi"", ""occu"": 1}], ""abc"": [0.0, -0.0, -0.0], ""properties"": {""magmom"": -0.0}, ""label"": ""Bi"", ""xyz"": [0.0, 0.0, 0.0]}, {""species"": [{""element"": ""F"", ""occu"": 1}], ""abc"": [0.7056114, 0.19388137, 0.39489582], ""properties"": {""magmom"": 0.0}, ""label"": ""F"", ""xyz"": [3.158505778988378, 0.8764517313761409, 3.396211698850035]}, {""species"": [{""element"": ""F"", ""occu"": 1}], ""abc"": [0.5, -0.0, -0.0], ""properties"": {""magmom"": -0.0}, ""label"": ""F"", ""xyz"": [1.948539435, 5e-09, 0.8854014450000001]}, {""species"": [{""element"": ""F"", ""occu"": 1}], ""abc"": [0.2943886, 0.8061186300000001, 0.60510418], ""properties"": {""magmom"": 0.0}, ""label"": ""F"", ""xyz"": [2.7653124110116223, 3.64430531862386, 4.261528411149965]}, {""species"": [{""element"": ""F"", ""occu"": 1}], ""abc"": [0.89949378, 0.39489582, 0.8061186300000001], ""properties"": {""magmom"": 0.0}, ""label"": ""F"", ""xyz"": [4.337939804273592, 1.7851486026307064, 5.974226213912781]}, {""species"": [{""element"": ""F"", ""occu"": 1}], ""abc"": [0.10050622000000001, 0.60510418, 0.19388137], ""properties"": {""magmom"": 0.0}, ""label"": ""F"", ""xyz"": [1.5858783857264083, 2.7356084473692936, 1.68351389608722]}]}",BiF5,87,1.8097,0.0,0.0082344924265481,0.0174039130602462,0.0048375239293391
mp-1403065,"{""@module"": ""pymatgen.core.structure"", ""@class"": ""Structure"", ""charge"": 0, ""lattice"": {""matrix"": [[4.76648854, -2.54267809, 0.0658213], [4.76646024, 2.54272898, 0.06590477], [3.35242125, -5.0890000000000016e-05, 4.23677134]], ""pbc"": [true, true, true], ""a"": 5.402680567537847, ""b"": 5.4026805683791315, ""c"": 5.402680781564532, ""alpha"": 56.151356141650496, ""beta"": 56.151356072836556, ""gamma"": 56.151359004585295, ""volume"": 101.57419918351506}, ""properties"": {}, ""sites"": [{""species"": [{""element"": ""Ti"", ""occu"": 1}], ""abc"": [0.0, -0.0, -0.0], ""properties"": {""magmom"": -0.0}, ""label"": ""Ti"", ""xyz"": [0.0, 0.0, 0.0]}, {""species"": [{""element"": ""Zn"", ""occu"": 1}], ""abc"": [0.5, 0.5, 0.5], ""properties"": {""magmom"": -0.0}, ""label"": ""Zn"", ""xyz"": [6.442685015, 1.238328287567897e-16, 2.184248705]}, {""species"": [{""element"": ""F"", ""occu"": 1}], ""abc"": [0.64411582, 0.87567645, 0.24018857000000002], ""properties"": {""magmom"": 0.0}, ""label"": ""F"", ""xyz"": [8.049260922567164, 0.5888164803858102, 1.1177318452262164]}, {""species"": [{""element"": ""F"", ""occu"": 1}], ""abc"": [0.87567645, 0.24018857000000002, 0.64411582], ""properties"": {""magmom"": 0.0}, ""label"": ""F"", ""xyz"": [7.478098595109515, -1.6158616647943016, 2.802439180597463]}, {""species"": [{""element"": ""F"", ""occu"": 1}], ""abc"": [0.7598114300000001, 0.35588418, 0.12432355], ""properties"": {""magmom"": 0.0}, ""label"": ""F"", ""xyz"": [5.734725178566453, -1.0270451844084918, 0.6001966946340546]}, {""species"": [{""element"": ""F"", ""occu"": 1}], ""abc"": [0.12432355, 0.7598114300000001, 0.35588418], ""properties"": {""magmom"": 0.0}, ""label"": ""F"", ""xyz"": [5.407271434890485, 1.6158616647943018, 1.5660582294025371]}, {""species"": [{""element"": ""F"", ""occu"": 1}], ""abc"": [0.35588418, 0.12432355, 0.7598114300000001], ""properties"": {""magmom"": 0.0}, ""label"": ""F"", ""xyz"": [4.836109107432836, -0.5888164803858098, 3.250765564773784]}, {""species"": [{""element"": ""F"", ""occu"": 1}], ""abc"": [0.24018857000000002, 0.64411582, 0.87567645], ""properties"": {""magmom"": 0.0}, ""label"": ""F"", ""xyz"": [7.1506448514335474, 1.0270451844084918, 3.768300715365945]}]}",TiZnF6,148,4.2379,0.0,0.002700360999977,0.004029522286572,0.0017857906042632
mp-8280,"{""@module"": ""pymatgen.core.structure"", ""@class"": ""Structure"", ""charge"": 0, ""lattice"": {""matrix"": [[4.49298382, 0.0, -0.0], [-2.2464914, 3.8910378100000003, 0.0], [-0.0, 0.0, 7.77005598]], ""pbc"": [true, true, true], ""a"": 4.49298382, ""b"": 4.492983290545777, ""c"": 7.77005598, ""alpha"": 90.0, ""beta"": 90.0, ""gamma"": 119.99999638834105, ""volume"": 135.83899296740643}, ""properties"": {}, ""sites"": [{""species"": [{""element"": ""Ba"", ""occu"": 1}], ""abc"": [0.0, -0.0, -0.0], ""properties"": {""magmom"": 0.0}, ""label"": ""Ba"", ""xyz"": [0.0, 0.0, 0.0]}, {""species"": [{""element"": ""Mg"", ""occu"": 1}], ""abc"": [0.666667, 0.333333, 0.3772635], ""properties"": {""magmom"": -0.0}, ""label"": ""Mg"", ""xyz"": [2.24649432649174, 1.29701130632073, 2.93135851421073]}, {""species"": [{""element"": ""Mg"", ""occu"": 1}], ""abc"": [0.333333, 0.666667, 0.6227365], ""properties"": {""magmom"": -0.0}, ""label"": ""Mg"", ""xyz"": [-1.9064917400335446e-06, 2.5940265036792702, 4.83869746578927]}, {""species"": [{""element"": ""As"", ""occu"": 1}], ""abc"": [0.666667, 0.333333, 0.72476472], ""properties"": {""magmom"": 0.0}, ""label"": ""As"", ""xyz"": [2.24649432649174, 1.29701130632073, 5.631462446729026]}, {""species"": [{""element"": ""As"", ""occu"": 1}], ""abc"": [0.333333, 0.666667, 0.27523528], ""properties"": {""magmom"": 0.0}, ""label"": ""As"", ""xyz"": [-1.9064917400335446e-06, 2.5940265036792702, 2.1385935332709747]}]}",Ba(MgAs)2,164,1.0675000000000003,0.0,0.0727777952840275,0.2557553894321491,0.0313715905652116
mp-8226,"{""@module"": ""pymatgen.core.structure"", ""@class"": ""Structure"", ""charge"": 0, ""lattice"": {""matrix"": [[6.86514624, -2.00439803, -0.008892530000000001], [6.86514624, 2.00439803, -0.008892530000000001], [6.28436088, -0.0, 3.41390175]], ""pbc"": [true, true, true], ""a"": 7.151777641701663, ""b"": 7.151777641701663, ""c"": 7.151777179745427, ""alpha"": 32.55212627554223, ""beta"": 32.55212627554223, ""gamma"": 32.55212735018579, ""volume"": 94.17791876383468}, ""properties"": {}, ""sites"": [{""species"": [{""element"": ""Th"", ""occu"": 1}], ""abc"": [0.73884446, 0.73884446, 0.73884446], ""properties"": {""magmom"": -0.0}, ""label"": ""Th"", ""xyz"": [14.787715753856386, 0.0, 2.5092020019200376]}, {""species"": [{""element"": ""Th"", ""occu"": 1}], ""abc"": [0.26115554, 0.26115554, 0.26115554], ""properties"": {""magmom"": -0.0}, ""label"": ""Th"", ""xyz"": [5.226937606143615, 0.0, 0.8869146880799627]}, {""species"": [{""element"": ""N"", ""occu"": 1}], ""abc"": [0.62213807, 0.62213807, 0.62213807], ""properties"": {""magmom"": 0.0}, ""label"": ""N"", ""xyz"": [12.451877813109414, 0.0, 2.1128534830113885]}, {""species"": [{""element"": ""N"", ""occu"": 1}], ""abc"": [0.37786193, 0.37786193, 0.37786193], ""properties"": {""magmom"": 0.0}, ""label"": ""N"", ""xyz"": [7.562775546890585, 0.0, 1.2832632069886118]}, {""species"": [{""element"": ""F"", ""occu"": 1}], ""abc"": [0.13195481, 0.13195481, 0.13195481], ""properties"": {""magmom"": 0.0}, ""label"": ""F"", ""xyz"": [2.6410297813346615, 0.0, 0.4481339325667789]}, {""species"": [{""element"": ""F"", ""occu"": 1}], ""abc"": [0.86804519, 0.86804519, 0.86804519], ""properties"": {""magmom"": 0.0}, ""label"": ""F"", ""xyz"": [17.373623578665338, 0.0, 2.947982757433221]}]}",ThNF,166,2.3515,0.0,0.0068583162204115,0.0108750415219684,0.0045312079758095
mp-676861,"{""@module"": ""pymatgen.core.structure"", ""@class"": ""Structure"", ""charge"": 0, ""lattice"": {""matrix"": [[3.01452656, 0.0, 0.0], [0.0, 4.49920861, -0.05435381], [0.0, -0.05435381, 4.49920861]], ""pbc"": [true, true, true], ""a"": 3.01452656, ""b"": 4.499536915390255, ""c"": 4.499536915390255, ""alpha"": 91.38428452396985, ""beta"": 90.0, ""gamma"": 90.0, ""volume"": 61.01378780609018}, ""properties"": {}, ""sites"": [{""species"": [{""element"": ""Al"", ""occu"": 1}], ""abc"": [0.5, 0.5, 0.5], ""properties"": {""magmom"": -0.0}, ""label"": ""Al"", ""xyz"": [1.50726328, 2.2224274, 2.2224274]}, {""species"": [{""element"": ""Sb"", ""occu"": 1}], ""abc"": [0.0, 0.0, -0.0], ""properties"": {""magmom"": -0.0}, ""label"": ""Sb"", ""xyz"": [0.0, 0.0, 0.0]}, {""species"": [{""element"": ""O"", ""occu"": 1}], ""abc"": [0.0, 0.68922426, 0.68922426], ""properties"": {""magmom"": 0.0}, ""label"": ""O"", ""xyz"": [0.0, 3.063501760337448, 3.063501760337448]}, {""species"": [{""element"": ""O"", ""occu"": 1}], ""abc"": [0.5, 0.20195179, 0.79804821], ""properties"": {""magmom"": -0.0}, ""label"": ""O"", ""xyz"": [1.50726328, 0.8652462715957318, 3.5796085284042682]}, {""species"": [{""element"": ""O"", ""occu"": 1}], ""abc"": [0.5, 0.79804821, 0.20195179], ""properties"": {""magmom"": -0.0}, ""label"": ""O"", ""xyz"": [1.50726328, 3.5796085284042682, 0.8652462715957318]}, {""species"": [{""element"": ""O"", ""occu"": 1}], ""abc"": [-0.0, 0.31077574, 0.31077574], ""properties"": {""magmom"": 0.0}, ""label"": ""O"", ""xyz"": [0.0, 1.3813530396625522, 1.3813530396625522]}]}",AlSbO4,65,1.5570000000000004,0.0,0.0047201349118467,0.0086927618624251,0.0031253984796795
mp-30315,"{""@module"": ""pymatgen.core.structure"", ""@class"": ""Structure"", ""charge"": 0, ""lattice"": {""matrix"": [[3.55636632, 0.0, 0.0], [0.0, 3.55636632, 0.0], [0.0, 0.0, 8.12197555]], ""pbc"": [true, true, true], ""a"": 3.55636632, ""b"": 3.55636632, ""c"": 8.12197555, ""alpha"": 90.0, ""beta"": 90.0, ""gamma"": 90.0, ""volume"": 102.72464643001315}, ""properties"": {}, ""sites"": [{""species"": [{""element"": ""Ca"", ""occu"": 1}], ""abc"": [-0.0, -0.0, 0.0], ""properties"": {""magmom"": -0.0}, ""label"": ""Ca"", ""xyz"": [0.0, 0.0, 0.0]}, {""species"": [{""element"": ""Ca"", ""occu"": 1}], ""abc"": [0.5, 0.5, 0.722461799999999], ""properties"": {""magmom"": 0.0}, ""label"": ""Ca"", ""xyz"": [1.77818316, 1.77818316, 5.867817075408983]}, {""species"": [{""element"": ""Ca"", ""occu"": 1}], ""abc"": [0.5, 0.5, 0.2775382], ""properties"": {""magmom"": 0.0}, ""label"": ""Ca"", ""xyz"": [1.77818316, 1.77818316, 2.25415847459101]}, {""species"": [{""element"": ""B"", ""occu"": 1}], ""abc"": [-0.0, -0.0, 0.5], ""properties"": {""magmom"": -0.0}, ""label"": ""B"", ""xyz"": [0.0, 0.0, 4.060987775]}, {""species"": [{""element"": ""N"", ""occu"": 1}], ""abc"": [-0.0, 0.0, 0.66575438], ""properties"": {""magmom"": 0.0}, ""label"": ""N"", ""xyz"": [0.0, 0.0, 5.407240796665409]}, {""species"": [{""element"": ""N"", ""occu"": 1}], ""abc"": [0.0, -0.0, 0.33424562], ""properties"": {""magmom"": 0.0}, ""label"": ""N"", ""xyz"": [0.0, 0.0, 2.714734753334591]}, {""species"": [{""element"": ""N"", ""occu"": 1}], ""abc"": [0.5, 0.5, 0.0], ""properties"": {""magmom"": 0.0}, ""label"": ""N"", ""xyz"": [1.77818316, 1.77818316, 0.0]}]}",Ca3BN3,123,0.5678000000000001,0.0,0.0334273305195639,0.1305883519464738,0.0244616088952979
mp-605034,"{""@module"": ""pymatgen.core.structure"", ""@class"": ""Structure"", ""charge"": 0, ""lattice"": {""matrix"": [[4.90056519, -1e-08, 2.82934297], [1.63352238, 4.62029728, 2.82934297], [-0.0, -0.0, 5.65868496]], ""pbc"": [true, true, true], ""a"": 5.658685432441722, ""b"": 5.658685709899842, ""c"": 5.65868496, ""alpha"": 59.99999865487283, ""beta"": 59.999997032898705, ""gamma"": 59.9999931579362, ""volume"": 128.12432984816914}, ""properties"": {}, ""sites"": [{""species"": [{""element"": ""K"", ""occu"": 1}], ""abc"": [0.25, 0.25, 0.25], ""properties"": {""magmom"": 0.0}, ""label"": ""K"", ""xyz"": [1.6335218925000001, 1.1550743175, 2.829342725]}, {""species"": [{""element"": ""K"", ""occu"": 1}], ""abc"": [0.75, 0.75, 0.75], ""properties"": {""magmom"": 0.0}, ""label"": ""K"", ""xyz"": [4.9005656774999995, 3.4652229525, 8.488028175]}, {""species"": [{""element"": ""Ni"", ""occu"": 1}], ""abc"": [-0.0, 0.0, 0.0], ""properties"": {""magmom"": 0.0}, ""label"": ""Ni"", ""xyz"": [0.0, 0.0, 0.0]}, {""species"": [{""element"": ""F"", ""occu"": 1}], ""abc"": [0.22282013, 0.77717987, 0.77717987], ""properties"": {""magmom"": -0.0}, ""label"": ""F"", ""xyz"": [2.361485283639765, 3.5908020372035523, 7.227159011583756]}, {""species"": [{""element"": ""F"", ""occu"": 1}], ""abc"": [0.22282013, 0.77717987, 0.22282013], ""properties"": {""magmom"": -0.0}, ""label"": ""F"", ""xyz"": [2.361485283639765, 3.5908020372035523, 4.090211888416245]}, {""species"": [{""element"": ""F"", ""occu"": 1}], ""abc"": [0.77717987, 0.22282013, 0.77717987], ""properties"": {""magmom"": -0.0}, ""label"": ""F"", ""xyz"": [4.172602286360235, 1.0294952327964477, 7.227159011583756]}, {""species"": [{""element"": ""F"", ""occu"": 1}], ""abc"": [0.77717987, 0.22282013, 0.22282013], ""properties"": {""magmom"": -0.0}, ""label"": ""F"", ""xyz"": [4.172602286360235, 1.0294952327964477, 4.090211888416245]}, {""species"": [{""element"": ""F"", ""occu"": 1}], ""abc"": [0.77717987, 0.77717987, 0.22282013], ""properties"": {""magmom"": -0.0}, ""label"": ""F"", ""xyz"": [5.078161328221215, 3.5908020316599547, 5.658685721636273]}, {""species"": [{""element"": ""F"", ""occu"": 1}], ""abc"": [0.22282013, 0.22282013, 0.77717987], ""properties"": {""magmom"": -0.0}, ""label"": ""F"", ""xyz"": [1.4559262417787842, 1.029495238340045, 5.6586851783637275]}]}",K2NiF6,225,1.5545000000000002,0.0,0.0094851994254183,0.0296237962571396,0.005889039133305
mp-1220879,"{""@module"": ""pymatgen.core.structure"", ""@class"": ""Structure"", ""charge"": 0, ""lattice"": {""matrix"": [[7.11051703, -2.05831214, -0.00190764], [7.11051703, 2.05831214, -0.00190764], [6.51563119, 0.0, 3.51321119]], ""pbc"": [true, true, true], ""a"": 7.402439120903445, ""b"": 7.402439120903445, ""c"": 7.402438967640465, ""alpha"": 32.288747778170816, ""beta"": 32.288747778170816, ""gamma"": 32.28874454306575, ""volume"": 102.88752122861273}, ""properties"": {}, ""sites"": [{""species"": [{""element"": ""Na"", ""occu"": 1}], ""abc"": [0.0, -0.0, -0.0], ""properties"": {""magmom"": 0.0}, ""label"": ""Na"", ""xyz"": [0.0, 0.0, 0.0]}, {""species"": [{""element"": ""Sb"", ""occu"": 1}], ""abc"": [0.5, 0.5, 0.5], ""properties"": {""magmom"": -0.0}, ""label"": ""Sb"", ""xyz"": [10.368332624999999, 0.0, 1.754697955]}, {""species"": [{""element"": ""Se"", ""occu"": 1}], ""abc"": [0.24498682, 0.24498682, 0.24498682], ""properties"": {""magmom"": 0.0}, ""label"": ""Se"", ""xyz"": [5.080209677002005, 0.0, 0.8597557441119061]}, {""species"": [{""element"": ""Se"", ""occu"": 1}], ""abc"": [0.7550131800000001, 0.7550131800000001, 0.7550131800000001], ""properties"": {""magmom"": 0.0}, ""label"": ""Se"", ""xyz"": [15.656455572997995, 0.0, 2.649640165888094]}]}",NaSbSe2,166,0.6774,0.0,0.1614801687441647,0.6198412123300245,0.0628905756848502