id,structure_json,formula,spacegroup,bandgap,energy_above_hull,k_1064,k_755,k_1500
mp-1207196,"{""@module"": ""pymatgen.core.structure"", ""@class"": ""Structure"", ""charge"": 0, ""lattice"": {""matrix"": [[0.0, 3.6148213, 3.6148213], [3.6148213, 0.0, 3.6148213], [3.6148213, 3.6148213, -0.0]], ""pbc"": [true, true, true], ""a"": 5.112129308015143, ""b"": 5.112129308015143, ""c"": 5.112129308015143, ""alpha"": 60.00000000000001, ""beta"": 60.00000000000001, ""gamma"": 60.00000000000001, ""volume"": 94.46925569178532}, ""properties"": {}, ""sites"": [{""species"": [{""element"": ""Ca"", ""occu"": 1}], ""abc"": [0.25, 0.25, 0.25], ""properties"": {""magmom"": 0.0}, ""label"": ""Ca"", ""xyz"": [1.80741065, 1.80741065, 1.80741065]}, {""species"": [{""element"": ""Ca"", ""occu"": 1}], ""abc"": [0.75, 0.75, 0.75], ""properties"": {""magmom"": 0.0}, ""label"": ""Ca"", ""xyz"": [5.4222319500000005, 5.4222319500000005, 5.4222319500000005]}, {""species"": [{""element"": ""H"", ""occu"": 1}], ""abc"": [0.7628197600000001, 0.23718024000000001, 0.23718024000000001], ""properties"": {""magmom"": -0.0}, ""label"": ""H"", ""xyz"": [1.7147283669822242, 3.6148213000000005, 3.6148213000000005]}, {""species"": [{""element"": ""H"", ""occu"": 1}], ""abc"": [0.23718024000000001, 0.7628197600000001, 0.7628197600000001], ""properties"": {""magmom"": -0.0}, ""label"": ""H"", ""xyz"": [5.514914233017777, 3.6148213000000005, 3.6148213000000005]}, {""species"": [{""element"": ""H"", ""occu"": 1}], ""abc"": [0.23718024000000001, 0.7628197600000001, 0.23718024000000001], ""properties"": {""magmom"": -0.0}, ""label"": ""H"", ""xyz"": [3.6148213000000005, 1.7147283669822242, 3.6148213000000005]}, {""species"": [{""element"": ""H"", ""occu"": 1}], ""abc"": [0.7628197600000001, 0.23718024000000001, 0.7628197600000001], ""properties"": {""magmom"": -0.0}, ""label"": ""H"", ""xyz"": [3.6148213000000005, 5.514914233017777, 3.6148213000000005]}, {""species"": [{""element"": ""H"", ""occu"": 1}], ""abc"": [0.23718024000000001, 0.23718024000000001, 0.7628197600000001], ""properties"": {""magmom"": -0.0}, ""label"": ""H"", ""xyz"": [3.6148213000000005, 3.6148213000000005, 1.7147283669822242]}, {""species"": [{""element"": ""H"", ""occu"": 1}], ""abc"": [0.7628197600000001, 0.7628197600000001, 0.23718024000000001], ""properties"": {""magmom"": -0.0}, ""label"": ""H"", ""xyz"": [3.6148213000000005, 3.6148213000000005, 5.514914233017777]}, {""species"": [{""element"": ""Os"", ""occu"": 1}], ""abc"": [0.0, 0.0, -0.0], ""properties"": {""magmom"": 0.0}, ""label"": ""Os"", ""xyz"": [0.0, 0.0, 0.0]}]}",Ca2H6Os,225,2.6559,0.0,0.0057726143979618,0.0087946063666184,0.0038046028648689
mp-7523,"{""@module"": ""pymatgen.core.structure"", ""@class"": ""Structure"", ""charge"": 0, ""lattice"": {""matrix"": [[3.93251491, -1e-08, -1.18006618], [-0.35411435, 3.91653886, -1.18006618], [0.01706954, 0.0186824, 7.19938084]], ""pbc"": [true, true, true], ""a"": 4.105755680328787, ""b"": 4.105755692189419, ""c"": 7.199425315997429, ""alpha"": 106.56750759863817, ""beta"": 106.56750675031077, ""gamma"": 90.00001295384807, ""volume"": 111.05716210779045}, ""properties"": {}, ""sites"": [{""species"": [{""element"": ""Th"", ""occu"": 1}], ""abc"": [0.33649179, 0.33649179, 0.67298258], ""properties"": {""magmom"": 0.0}, ""label"": ""Th"", ""xyz"": [1.2155899128400158, 1.3304560979936337, 4.050892729652443]}, {""species"": [{""element"": ""Th"", ""occu"": 1}], ""abc"": [0.66350821, 0.66350821, 0.32701742], ""properties"": {""magmom"": 0.0}, ""label"": ""Th"", ""xyz"": [2.379880187159985, 2.6047651520063666, 0.7883557503475569]}, {""species"": [{""element"": ""Te"", ""occu"": 1}], ""abc"": [-0.0, -0.0, -0.0], ""properties"": {""magmom"": 0.0}, ""label"": ""Te"", ""xyz"": [0.0, 0.0, 0.0]}, {""species"": [{""element"": ""N"", ""occu"": 1}], ""abc"": [0.75, 0.25, 0.5], ""properties"": {""magmom"": -0.0}, ""label"": ""N"", ""xyz"": [2.869392365, 0.9884759075000001, 2.41962424]}, {""species"": [{""element"": ""N"", ""occu"": 1}], ""abc"": [0.25, 0.75, 0.5], ""properties"": {""magmom"": -0.0}, ""label"": ""N"", ""xyz"": [0.7260777350000001, 2.9467453425000003, 2.41962424]}]}",Th2TeN2,139,1.6192000000000002,0.0,0.0315398668519784,0.1289099056862122,0.0179765388482579
mp-753287,"{""@module"": ""pymatgen.core.structure"", ""@class"": ""Structure"", ""charge"": 0, ""lattice"": {""matrix"": [[-0.0, -2.38158104, -2.38158104], [-0.0, 2.38158104, -2.38158104], [4.7502443, 0.0, 0.0]], ""pbc"": [true, true, true], ""a"": 3.3680642066586204, ""b"": 3.3680642066586204, ""c"": 4.7502443, ""alpha"": 90.0, ""beta"": 90.0, ""gamma"": 90.0, ""volume"": 53.88608967997407}, ""properties"": {}, ""sites"": [{""species"": [{""element"": ""Ca"", ""occu"": 1}], ""abc"": [0.5, 0.5, 0.5], ""properties"": {""magmom"": 0.0}, ""label"": ""Ca"", ""xyz"": [2.37512215, 0.0, -2.38158104]}, {""species"": [{""element"": ""Cd"", ""occu"": 1}], ""abc"": [-0.0, -0.0, 0.0], ""properties"": {""magmom"": -0.0}, ""label"": ""Cd"", ""xyz"": [0.0, 0.0, 0.0]}, {""species"": [{""element"": ""O"", ""occu"": 1}], ""abc"": [0.5, 0.5, -0.0], ""properties"": {""magmom"": 0.0}, ""label"": ""O"", ""xyz"": [0.0, 0.0, -2.38158104]}, {""species"": [{""element"": ""O"", ""occu"": 1}], ""abc"": [-0.0, -0.0, 0.5], ""properties"": {""magmom"": -0.0}, ""label"": ""O"", ""xyz"": [2.37512215, 0.0, 0.0]}]}",CaCdO2,123,0.4438,0.0,0.1146038268564489,0.1820970788910345,0.0250330572303827
mp-5840,"{""@module"": ""pymatgen.core.structure"", ""@class"": ""Structure"", ""charge"": 0, ""lattice"": {""matrix"": [[-2.09488825, 2.09488825, 4.62648991], [2.09488825, -2.09488825, 4.62648991], [2.09488825, 2.09488825, -4.62648991]], ""pbc"": [true, true, true], ""a"": 5.493771240897089, ""b"": 5.493771240897089, ""c"": 5.493771240897089, ""alpha"": 135.16898230079514, ""beta"": 135.16898230079514, ""gamma"": 65.2677522807835, ""volume"": 81.21445464830744}, ""properties"": {}, ""sites"": [{""species"": [{""element"": ""Li"", ""occu"": 1}], ""abc"": [-0.0, -0.0, -0.0], ""properties"": {""magmom"": 0.0}, ""label"": ""Li"", ""xyz"": [0.0, 0.0, 0.0]}, {""species"": [{""element"": ""Li"", ""occu"": 1}], ""abc"": [0.75, 0.25, 0.5], ""properties"": {""magmom"": 0.0}, ""label"": ""Li"", ""xyz"": [2.220446049250313e-16, 2.0948882499999995, 2.313244955]}, {""species"": [{""element"": ""Sc"", ""occu"": 1}], ""abc"": [0.25, 0.75, 0.5], ""properties"": {""magmom"": 0.0}, ""label"": ""Sc"", ""xyz"": [2.0948882499999995, 2.220446049250313e-16, 2.313244955]}, {""species"": [{""element"": ""Sc"", ""occu"": 1}], ""abc"": [0.5, 0.5, -0.0], ""properties"": {""magmom"": 0.0}, ""label"": ""Sc"", ""xyz"": [0.0, 0.0, 4.62648991]}, {""species"": [{""element"": ""O"", ""occu"": 1}], ""abc"": [0.26997976, 0.26997976, -0.0], ""properties"": {""magmom"": -0.0}, ""label"": ""O"", ""xyz"": [0.0, 0.0, 2.4981172710884434]}, {""species"": [{""element"": ""O"", ""occu"": 1}], ""abc"": [0.01997976, 0.51997976, 0.5], ""properties"": {""magmom"": -0.0}, ""label"": ""O"", ""xyz"": [2.09488825, 0.0, 0.1848723160884429]}, {""species"": [{""element"": ""O"", ""occu"": 1}], ""abc"": [0.73002024, 0.73002024, 0.0], ""properties"": {""magmom"": -0.0}, ""label"": ""O"", ""xyz"": [0.0, 0.0, 6.754862548911557]}, {""species"": [{""element"": ""O"", ""occu"": 1}], ""abc"": [0.48002024, 0.98002024, 0.5], ""properties"": {""magmom"": -0.0}, ""label"": ""O"", ""xyz"": [2.0948882500000003, -2.220446049250313e-16, 4.441617593911557]}]}",LiScO2,141,3.9058,0.0,0.0034413391018178,0.00527747586297,0.0023212253910104
mp-4805,"{""@module"": ""pymatgen.core.structure"", ""@class"": ""Structure"", ""charge"": 0, ""lattice"": {""matrix"": [[3.85490617, -0.0, 0.0], [-1.92745309, 3.33844647, -0.0], [0.0, 0.0, 6.66746081]], ""pbc"": [true, true, true], ""a"": 3.85490617, ""b"": 3.8549059971944852, ""c"": 6.66746081, ""alpha"": 90.0, ""beta"": 90.0, ""gamma"": 120.00000156869139, ""volume"": 85.80620611599412}, ""properties"": {}, ""sites"": [{""species"": [{""element"": ""Gd"", ""occu"": 1}], ""abc"": [0.666667, 0.333333, 0.71874026], ""properties"": {""magmom"": 6.878}, ""label"": ""Gd"", ""xyz"": [1.9274550107864201, 1.11281437718451, 4.79217251611921]}, {""species"": [{""element"": ""Gd"", ""occu"": 1}], ""abc"": [0.333333, 0.666667, 0.28125974], ""properties"": {""magmom"": 6.878}, ""label"": ""Gd"", ""xyz"": [-1.9307864200790448e-06, 2.22563209281549, 1.875288293880789]}, {""species"": [{""element"": ""S"", ""occu"": 1}], ""abc"": [-0.0, 0.0, -0.0], ""properties"": {""magmom"": -0.024}, ""label"": ""S"", ""xyz"": [0.0, 0.0, 0.0]}, {""species"": [{""element"": ""O"", ""occu"": 1}], ""abc"": [0.333333, 0.666667, 0.62912146], ""properties"": {""magmom"": -0.027}, ""label"": ""O"", ""xyz"": [-1.9307864200790448e-06, 2.22563209281549, 4.1946426792799825]}, {""species"": [{""element"": ""O"", ""occu"": 1}], ""abc"": [0.666667, 0.333333, 0.37087854000000003], ""properties"": {""magmom"": -0.027}, ""label"": ""O"", ""xyz"": [1.9274550107864201, 1.11281437718451, 2.4728181307200177]}]}",Gd2SO2,164,2.0292,0.0,0.0073242373470208,0.012008808781163,0.0050071398486625
mp-541044,"{""@module"": ""pymatgen.core.structure"", ""@class"": ""Structure"", ""charge"": 0, ""lattice"": {""matrix"": [[3.53441255, 1e-08, 0.0], [-1.767205259999999, 3.06089067, -0.0], [0.0, 0.0, 13.66789196]], ""pbc"": [true, true, true], ""a"": 3.53441255, ""b"": 3.534411708426837, ""c"": 13.66789196, ""alpha"": 90.0, ""beta"": 90.0, ""gamma"": 119.99998871501055, ""volume"": 147.8654114591104}, ""properties"": {}, ""sites"": [{""species"": [{""element"": ""Cs"", ""occu"": 1}], ""abc"": [0.666667, 0.333333, 0.5], ""properties"": {""magmom"": 0.0}, ""label"": ""Cs"", ""xyz"": [1.7672083805392704, 1.02029587636978, 6.83394598]}, {""species"": [{""element"": ""Cs"", ""occu"": 1}], ""abc"": [0.0, -0.0, 0.0], ""properties"": {""magmom"": 0.0}, ""label"": ""Cs"", ""xyz"": [0.0, 0.0, 0.0]}, {""species"": [{""element"": ""Y"", ""occu"": 1}], ""abc"": [0.333333, 0.666667, 0.24984306], ""properties"": {""magmom"": 0.0}, ""label"": ""Y"", ""xyz"": [-1.0905392695548244e-06, 2.04059480363022, 3.414827951035798]}, {""species"": [{""element"": ""Y"", ""occu"": 1}], ""abc"": [0.333333, 0.666667, 0.75015694], ""properties"": {""magmom"": 0.0}, ""label"": ""Y"", ""xyz"": [-1.0905392695548244e-06, 2.04059480363022, 10.253064008964202]}, {""species"": [{""element"": ""O"", ""occu"": 1}], ""abc"": [0.666667, 0.333333, 0.16760137], ""properties"": {""magmom"": -0.0}, ""label"": ""O"", ""xyz"": [1.7672083805392704, 1.02029587636978, 2.2907574175079852]}, {""species"": [{""element"": ""O"", ""occu"": 1}], ""abc"": [0.666667, 0.333333, 0.83239863], ""properties"": {""magmom"": -0.0}, ""label"": ""O"", ""xyz"": [1.7672083805392704, 1.02029587636978, 11.377134542492016]}, {""species"": [{""element"": ""O"", ""occu"": 1}], ""abc"": [0.0, -0.0, 0.33206513], ""properties"": {""magmom"": -0.0}, ""label"": ""O"", ""xyz"": [0.0, 0.0, 4.538630320523355]}, {""species"": [{""element"": ""O"", ""occu"": 1}], ""abc"": [0.0, -0.0, 0.6679348700000001], ""properties"": {""magmom"": -0.0}, ""label"": ""O"", ""xyz"": [0.0, 0.0, 9.129261639476647]}]}",CsYO2,194,2.8428,0.0,0.0036961159672438,0.0056265418553888,0.0025272026428172
mp-754110,"{""@module"": ""pymatgen.core.structure"", ""@class"": ""Structure"", ""charge"": 0, ""lattice"": {""matrix"": [[3.63295174, -2.13e-06, 1.011e-05], [-1.8164773200000002, 3.1462302, -2.3590000000000003e-05], [6.220000000000001e-05, -0.00013019, 12.4077923]], ""pbc"": [true, true, true], ""a"": 3.632951740014692, ""b"": 3.632953939430407, ""c"": 12.40779230083892, ""alpha"": 90.00103629076996, ""beta"": 89.99955333092359, ""gamma"": 120.00003997260107, ""volume"": 141.82228951603688}, ""properties"": {}, ""sites"": [{""species"": [{""element"": ""Sm"", ""occu"": 1}], ""abc"": [6.29e-06, 3.66e-05, 0.99999752], ""properties"": {""magmom"": 0.0}, ""label"": ""Sm"", ""xyz"": [1.8568042276600002e-05, -1.503766520649999e-05, 12.407761527875293]}, {""species"": [{""element"": ""Sm"", ""occu"": 1}], ""abc"": [0.9999937600000001, 1.289e-05, 0.50000256], ""properties"": {""magmom"": -0.0}, ""label"": ""Sm"", ""xyz"": [3.63293675614772, -2.6670412717199995e-05, 6.203938023581126]}, {""species"": [{""element"": ""Ag"", ""occu"": 1}], ""abc"": [0.33333398000000003, 0.66670384, 0.24999972], ""properties"": {""magmom"": 0.0}, ""label"": ""Ag"", ""xyz"": [-5.05918921998205e-05, 2.097570498399044, 3.1019322432811083]}, {""species"": [{""element"": ""Ag"", ""occu"": 1}], ""abc"": [0.6666654, 0.33335763, 0.75000005], ""properties"": {""magmom"": -0.0}, ""label"": ""Ag"", ""xyz"": [1.816473300586954, 1.0487207804026146, 9.30584372147032]}, {""species"": [{""element"": ""O"", ""occu"": 1}], ""abc"": [0.33333926, 0.66670657, 0.0849196], ""properties"": {""magmom"": -0.0}, ""label"": ""O"", ""xyz"": [-4.663687355996797e-05, 2.0976005793770662, 1.0536524014510122]}, {""species"": [{""element"": ""O"", ""occu"": 1}], ""abc"": [0.33332612, 0.66667233, 0.41508048000000003], ""properties"": {""magmom"": 0.0}, ""label"": ""O"", ""xyz"": [-1.1641669250932263e-05, 2.0974498688380394, 5.150220026751113]}, {""species"": [{""element"": ""O"", ""occu"": 1}], ""abc"": [0.66666262, 0.33335053000000003, 0.58492504], ""properties"": {""magmom"": 0.0}, ""label"": ""O"", ""xyz"": [1.8164658303044672, 1.048719933289668, 7.257627283609278]}, {""species"": [{""element"": ""O"", ""occu"": 1}], ""abc"": [0.66667157, 0.33335861, 0.91507503], ""properties"": {""magmom"": -0.0}, ""label"": ""O"", ""xyz"": [1.8165042034151728, 1.0487023725834224, 11.354059787276231]}]}",SmAgO2,194,2.5847,0.000137575,0.0086784521142224,0.014113840088435,0.0057640126650907
mp-9365,"{""@module"": ""pymatgen.core.structure"", ""@class"": ""Structure"", ""charge"": 0, ""lattice"": {""matrix"": [[7.74592095, -2.04001931, 0.0011201], [7.74592095, 2.04001931, 0.0011201], [7.2081416, -0.0, 3.49337433]], ""pbc"": [true, true, true], ""a"": 8.010054394537269, ""b"": 8.010054394537269, ""c"": 8.01005427791557, ""alpha"": 29.509534143804753, ""beta"": 29.509534143804753, ""gamma"": 29.50952496749184, ""volume"": 110.3704612059656}, ""properties"": {}, ""sites"": [{""species"": [{""element"": ""Rb"", ""occu"": 1}], ""abc"": [0.0, -0.0, -0.0], ""properties"": {""magmom"": 0.0}, ""label"": ""Rb"", ""xyz"": [0.0, 0.0, 0.0]}, {""species"": [{""element"": ""Tb"", ""occu"": 1}], ""abc"": [0.5, 0.5, 0.5], ""properties"": {""magmom"": -0.0}, ""label"": ""Tb"", ""xyz"": [11.349991750000001, 0.0, 1.747807265]}, {""species"": [{""element"": ""S"", ""occu"": 1}], ""abc"": [0.7690247100000001, 0.7690247100000001, 0.7690247100000001], ""properties"": {""magmom"": 0.0}, ""label"": ""S"", ""xyz"": [17.456848228092287, 0.0, 2.6882139502050366]}, {""species"": [{""element"": ""S"", ""occu"": 1}], ""abc"": [0.23097529, 0.23097529, 0.23097529], ""properties"": {""magmom"": 0.0}, ""label"": ""S"", ""xyz"": [5.2431352719077156, 0.0, 0.8074005797949637]}]}",RbTbS2,166,2.3369,0.0,0.0095305505092905,0.0160376826572154,0.0063450887715469
mp-2667,"{""@module"": ""pymatgen.core.structure"", ""@class"": ""Structure"", ""charge"": 0, ""lattice"": {""matrix"": [[4.28285436, 0.0, -0.0], [0.0, 4.28285436, 0.0], [0.0, 0.0, 4.28285436]], ""pbc"": [true, true, true], ""a"": 4.28285436, ""b"": 4.28285436, ""c"": 4.28285436, ""alpha"": 90.0, ""beta"": 90.0, ""gamma"": 90.0, ""volume"": 78.55971856017129}, ""properties"": {}, ""sites"": [{""species"": [{""element"": ""Cs"", ""occu"": 1}], ""abc"": [0.0, 0.0, 0.0], ""properties"": {""magmom"": -0.0}, ""label"": ""Cs"", ""xyz"": [0.0, 0.0, 0.0]}, {""species"": [{""element"": ""Au"", ""occu"": 1}], ""abc"": [0.5, 0.5, 0.5], ""properties"": {""magmom"": 0.0}, ""label"": ""Au"", ""xyz"": [2.14142718, 2.14142718, 2.14142718]}]}",CsAu,221,1.0069,0.0,0.0291102834971287,0.1393433450981493,0.0163953915133881
mp-22922,"{""@module"": ""pymatgen.core.structure"", ""@class"": ""Structure"", ""charge"": 0, ""lattice"": {""matrix"": [[3.39580525, -1e-08, 1.96056859], [1.13193439, 3.20159536, 1.96056859], [0.0, 0.0, 3.92113719]], ""pbc"": [true, true, true], ""a"": 3.921137907804589, ""b"": 3.9211372723398488, ""c"": 3.92113719, ""alpha"": 60.000000779002974, ""beta"": 60.000006139947594, ""gamma"": 60.000009001124944, ""volume"": 42.630581348524416}, ""properties"": {}, ""sites"": [{""species"": [{""element"": ""Ag"", ""occu"": 1}], ""abc"": [0.0, -0.0, 0.0], ""properties"": {""magmom"": -0.0}, ""label"": ""Ag"", ""xyz"": [0.0, 0.0, 0.0]}, {""species"": [{""element"": ""Cl"", ""occu"": 1}], ""abc"": [0.5, 0.5, 0.5], ""properties"": {""magmom"": -0.0}, ""label"": ""Cl"", ""xyz"": [2.26386982, 1.600797675, 3.921137185]}]}",AgCl,225,0.9665999999999996,0.0,0.0074311480710046,0.0124678721542001,0.0050551889723674
mp-1409292,"{""@module"": ""pymatgen.core.structure"", ""@class"": ""Structure"", ""charge"": 0, ""lattice"": {""matrix"": [[4.57228607, -2.40140318, 0.03205386], [4.5722116, 2.40154194, 0.03228134], [3.283105759999999, -0.00013775000000000001, 3.98682637]], ""pbc"": [true, true, true], ""a"": 5.164645640193628, ""b"": 5.164645649961449, ""c"": 5.1646459660704345, ""alpha"": 55.4182500643545, ""beta"": 55.41825214125926, ""gamma"": 55.41824712166149, ""volume"": 87.04450752030682}, ""properties"": {}, ""sites"": [{""species"": [{""element"": ""Mg"", ""occu"": 1}], ""abc"": [0.5, 0.5, 0.5], ""properties"": {""magmom"": -0.0}, ""label"": ""Mg"", ""xyz"": [6.213801714999999, 5.050000000077616e-07, 2.0255807850000003]}, {""species"": [{""element"": ""Ni"", ""occu"": 1}], ""abc"": [-0.0, -0.0, 0.0], ""properties"": {""magmom"": 0.0}, ""label"": ""Ni"", ""xyz"": [0.0, 0.0, 0.0]}, {""species"": [{""element"": ""F"", ""occu"": 1}], ""abc"": [0.6270289, 0.90584919, 0.23064069], ""properties"": {""magmom"": 0.0}, ""label"": ""F"", ""xyz"": [7.765907457155401, 0.6696538559330791, 0.968865107154664]}, {""species"": [{""element"": ""F"", ""occu"": 1}], ""abc"": [0.90584919, 0.23064069, 0.6270289], ""properties"": {""magmom"": 0.0}, ""label"": ""F"", ""xyz"": [7.25494186448425, -1.6215022085918607, 2.5363367069211913]}, {""species"": [{""element"": ""F"", ""occu"": 1}], ""abc"": [0.76935931, 0.3729711, 0.09415081], ""properties"": {""magmom"": 0.0}, ""label"": ""F"", ""xyz"": [5.532140712442237, -0.9518491238127493, 0.41206387456657034]}, {""species"": [{""element"": ""F"", ""occu"": 1}], ""abc"": [0.09415081, 0.76935931, 0.3729711], ""properties"": {""magmom"": 0.0}, ""label"": ""F"", ""xyz"": [5.172661565515748, 1.6215032185918608, 1.514824863078809]}, {""species"": [{""element"": ""F"", ""occu"": 1}], ""abc"": [0.3729711, 0.09415081, 0.76935931], ""properties"": {""magmom"": 0.0}, ""label"": ""F"", ""xyz"": [4.661695972844598, -0.669652845933079, 3.082296462845336]}, {""species"": [{""element"": ""F"", ""occu"": 1}], ""abc"": [0.23064069, 0.6270289, 0.90584919], ""properties"": {""magmom"": 0.0}, ""label"": ""F"", ""xyz"": [6.895462717557761, 0.9518501338127493, 3.6390976954334295]}]}",MgNiF6,148,1.201,0.0,0.0991774201543601,0.6375041829906298,0.0314133144969799