id,structure_json,formula,spacegroup,bandgap,energy_above_hull,k_1064,k_755,k_1500
mp-999490,"{""@module"": ""pymatgen.core.structure"", ""@class"": ""Structure"", ""charge"": 0, ""lattice"": {""matrix"": [[-1.9835467, -3.43560377, -0.0], [-3.9670934, -0.0, 0.0], [-1.9835467, -1.14520193, -6.59306123]], ""pbc"": [true, true, true], ""a"": 3.96709349215759, ""b"": 3.9670934, ""c"": 6.979570284343136, ""alpha"": 73.48936923426663, ""beta"": 73.4893641099854, ""gamma"": 60.00000076845895, ""volume"": 89.85921186897164}, ""properties"": {}, ""sites"": [{""species"": [{""element"": ""Na"", ""occu"": 1}], ""abc"": [0.5, 0.5, 0.5], ""properties"": {""magmom"": 0.0}, ""label"": ""Na"", ""xyz"": [-3.9670934, -2.29040285, -3.296530615]}, {""species"": [{""element"": ""Dy"", ""occu"": 1}], ""abc"": [-0.0, 0.0, -0.0], ""properties"": {""magmom"": -0.0}, ""label"": ""Dy"", ""xyz"": [0.0, 0.0, 0.0]}, {""species"": [{""element"": ""S"", ""occu"": 1}], ""abc"": [0.74295813, 0.74295813, 0.77112461], ""properties"": {""magmom"": 0.0}, ""label"": ""S"", ""xyz"": [-5.9506381164533, -3.4356031440226475, -5.08407176968987]}, {""species"": [{""element"": ""S"", ""occu"": 1}], ""abc"": [0.25704187, 0.25704187, 0.22887539], ""properties"": {""magmom"": 0.0}, ""label"": ""S"", ""xyz"": [-1.9835486835467002, -1.1452025559773527, -1.5089894603101297]}]}",NaDyS2,166,2.2958,0.0,0.0100743668876319,0.0167239790471757,0.0067367798282868
mp-9821,"{""@module"": ""pymatgen.core.structure"", ""@class"": ""Structure"", ""charge"": 0, ""lattice"": {""matrix"": [[5.01267471, -0.02312792, -0.58037786], [-0.6488035600000001, 4.97056474, -0.58036498], [-0.02039801, -0.02313977, 5.04612118]], ""pbc"": [true, true, true], ""a"": 5.046214532630899, ""b"": 5.046214759996878, ""c"": 5.046215462206524, ""alpha"": 96.83467719934993, ""beta"": 96.83466614358761, ""gamma"": 96.83466394848807, ""volume"": 125.51739941415602}, ""properties"": {}, ""sites"": [{""species"": [{""element"": ""Rb"", ""occu"": 1}], ""abc"": [0.5, 0.5, 0.5], ""properties"": {""magmom"": 0.0}, ""label"": ""Rb"", ""xyz"": [2.1717365699999998, 2.462148525, 1.94268917]}, {""species"": [{""element"": ""Sb"", ""occu"": 1}], ""abc"": [0.0, -0.0, -0.0], ""properties"": {""magmom"": -0.0}, ""label"": ""Sb"", ""xyz"": [0.0, 0.0, 0.0]}, {""species"": [{""element"": ""F"", ""occu"": 1}], ""abc"": [0.20261545, 0.31607388000000003, 0.92236736], ""properties"": {""magmom"": 0.0}, ""label"": ""F"", ""xyz"": [0.7917610248703029, 1.5450362406787201, 4.353345738718025]}, {""species"": [{""element"": ""F"", ""occu"": 1}], ""abc"": [0.31607388000000003, 0.92236736, 0.20261545], ""properties"": {""magmom"": 0.0}, ""label"": ""F"", ""xyz"": [0.9818073659965187, 4.57268807062071, 0.30367011712488123]}, {""species"": [{""element"": ""F"", ""occu"": 1}], ""abc"": [0.07763264, 0.79738455, 0.68392612], ""properties"": {""magmom"": 0.0}, ""label"": ""F"", ""xyz"": [-0.14214949536548488, 3.9458301538496663, 2.943343745804812]}, {""species"": [{""element"": ""F"", ""occu"": 1}], ""abc"": [0.68392612, 0.07763264, 0.79738455], ""properties"": {""magmom"": 0.0}, ""label"": ""F"", ""xyz"": [3.361665774003481, 0.35160897937928975, 3.5817082228751187]}, {""species"": [{""element"": ""F"", ""occu"": 1}], ""abc"": [0.79738455, 0.68392612, 0.07763264], ""properties"": {""magmom"": 0.0}, ""label"": ""F"", ""xyz"": [3.5517121151296966, 3.37926080932128, -0.4679673987180254]}, {""species"": [{""element"": ""F"", ""occu"": 1}], ""abc"": [0.92236736, 0.20261545, 0.31607388000000003], ""properties"": {""magmom"": 0.0}, ""label"": ""F"", ""xyz"": [4.485622635365484, 0.9784668961503344, 0.942034594195188]}]}",RbSbF6,148,4.8826,0.0,0.0008202135569718,0.0011921873233135,0.0005591071955264
mp-23710,"{""@module"": ""pymatgen.core.structure"", ""@class"": ""Structure"", ""charge"": 0, ""lattice"": {""matrix"": [[2.992537, 0.0, 0.0], [0.0, 4.476694, 0.0], [0.0, 0.0, 4.476694]], ""pbc"": [true, true, true], ""a"": 2.992537, ""b"": 4.476694, ""c"": 4.476694, ""alpha"": 90.0, ""beta"": 90.0, ""gamma"": 90.0, ""volume"": 59.97280309933501}, ""properties"": {}, ""sites"": [{""species"": [{""element"": ""Mg"", ""occu"": 1}], ""abc"": [0.5, 0.5, 0.5], ""properties"": {""magmom"": -0.0}, ""label"": ""Mg"", ""xyz"": [1.4962685, 2.238347, 2.238347]}, {""species"": [{""element"": ""Mg"", ""occu"": 1}], ""abc"": [0.0, 0.0, 0.0], ""properties"": {""magmom"": -0.0}, ""label"": ""Mg"", ""xyz"": [0.0, 0.0, 0.0]}, {""species"": [{""element"": ""H"", ""occu"": 1}], ""abc"": [0.0, 0.695572, 0.695572], ""properties"": {""magmom"": -0.0}, ""label"": ""H"", ""xyz"": [0.0, 3.113862998968, 3.113862998968]}, {""species"": [{""element"": ""H"", ""occu"": 1}], ""abc"": [0.5, 0.804427999999999, 0.195572], ""properties"": {""magmom"": -0.0}, ""label"": ""H"", ""xyz"": [1.4962685, 3.601178001031996, 0.875515998968]}, {""species"": [{""element"": ""H"", ""occu"": 1}], ""abc"": [0.0, 0.304428, 0.304428], ""properties"": {""magmom"": -0.0}, ""label"": ""H"", ""xyz"": [0.0, 1.362831001032, 1.362831001032]}, {""species"": [{""element"": ""H"", ""occu"": 1}], ""abc"": [0.5, 0.195572, 0.804427999999999], ""properties"": {""magmom"": -0.0}, ""label"": ""H"", ""xyz"": [1.4962685, 0.875515998968, 3.601178001031996]}]}",MgH2,136,3.7684,0.0,0.0043863530268087,0.0064406531003019,0.0029240143550383
mp-22951,"{""@module"": ""pymatgen.core.structure"", ""@class"": ""Structure"", ""charge"": 0, ""lattice"": {""matrix"": [[4.70410576, 0.0, 0.0], [0.0, 4.70410576, -0.0], [-0.0, 0.0, 8.00429698]], ""pbc"": [true, true, true], ""a"": 4.70410576, ""b"": 4.70410576, ""c"": 8.00429698, ""alpha"": 90.0, ""beta"": 90.0, ""gamma"": 90.0, ""volume"": 177.1239742090216}, ""properties"": {}, ""sites"": [{""species"": [{""element"": ""Ba"", ""occu"": 1}], ""abc"": [0.75, 0.75, 0.83067256], ""properties"": {""magmom"": 0.0}, ""label"": ""Ba"", ""xyz"": [3.52807932, 3.52807932, 6.648949863376869]}, {""species"": [{""element"": ""Ba"", ""occu"": 1}], ""abc"": [0.25, 0.25, 0.16932744], ""properties"": {""magmom"": 0.0}, ""label"": ""Ba"", ""xyz"": [1.17602644, 1.17602644, 1.355347116623131]}, {""species"": [{""element"": ""I"", ""occu"": 1}], ""abc"": [0.25, 0.25, 0.65082611], ""properties"": {""magmom"": -0.0}, ""label"": ""I"", ""xyz"": [1.17602644, 1.17602644, 5.209405466778148]}, {""species"": [{""element"": ""I"", ""occu"": 1}], ""abc"": [0.75, 0.75, 0.34917389], ""properties"": {""magmom"": -0.0}, ""label"": ""I"", ""xyz"": [3.52807932, 3.52807932, 2.794891513221852]}, {""species"": [{""element"": ""F"", ""occu"": 1}], ""abc"": [0.25, 0.75, 0.0], ""properties"": {""magmom"": -0.0}, ""label"": ""F"", ""xyz"": [1.17602644, 3.52807932, 0.0]}, {""species"": [{""element"": ""F"", ""occu"": 1}], ""abc"": [0.75, 0.25, 0.0], ""properties"": {""magmom"": -0.0}, ""label"": ""F"", ""xyz"": [3.52807932, 1.17602644, 0.0]}]}",BaIF,129,4.0231,0.0,0.003622370449301,0.005530155780232,0.0025582618257498
mp-5955,"{""@module"": ""pymatgen.core.structure"", ""@class"": ""Structure"", ""charge"": 0, ""lattice"": {""matrix"": [[5.06383643, 1e-08, 2.9236064600000002], [1.68794548, 4.77423169, 2.9236064600000002], [2e-08, 1e-08, 5.8472158499999995]], ""pbc"": [true, true, true], ""a"": 5.847214218989149, ""b"": 5.847214970069633, ""c"": 5.8472158499999995, ""alpha"": 60.00001144024848, ""beta"": 60.0000071528589, ""gamma"": 60.00000902329936, ""volume"": 141.36187100144198}, ""properties"": {}, ""sites"": [{""species"": [{""element"": ""Na"", ""occu"": 1}], ""abc"": [0.5, 0.5, 0.5], ""properties"": {""magmom"": 0.0}, ""label"": ""Na"", ""xyz"": [3.375890965, 2.387115855, 5.847214385]}, {""species"": [{""element"": ""Sb"", ""occu"": 1}], ""abc"": [0.0, 0.0, -0.0], ""properties"": {""magmom"": -0.0}, ""label"": ""Sb"", ""xyz"": [0.0, 0.0, 0.0]}, {""species"": [{""element"": ""F"", ""occu"": 1}], ""abc"": [0.22872307, 0.77127693, 0.77127693], ""properties"": {""magmom"": 0.0}, ""label"": ""F"", ""xyz"": [2.460089637494755, 3.682254770971911, 7.43342914983534]}, {""species"": [{""element"": ""F"", ""occu"": 1}], ""abc"": [0.22872307, 0.77127693, 0.22872307], ""properties"": {""magmom"": 0.0}, ""label"": ""F"", ""xyz"": [2.460089626643678, 3.682254765546373, 4.260999620164659]}, {""species"": [{""element"": ""F"", ""occu"": 1}], ""abc"": [0.77127693, 0.22872307, 0.22872307], ""properties"": {""magmom"": 0.0}, ""label"": ""F"", ""xyz"": [4.291692292505245, 1.0919769390280882, 4.260999620164659]}, {""species"": [{""element"": ""F"", ""occu"": 1}], ""abc"": [0.77127693, 0.77127693, 0.22872307], ""properties"": {""magmom"": 0.0}, ""label"": ""F"", ""xyz"": [5.207493628148798, 3.682254770971911, 5.847213590158596]}, {""species"": [{""element"": ""F"", ""occu"": 1}], ""abc"": [0.22872307, 0.22872307, 0.77127693], ""properties"": {""magmom"": 0.0}, ""label"": ""F"", ""xyz"": [1.5442883018512024, 1.0919769390280882, 5.847215179841404]}, {""species"": [{""element"": ""F"", ""occu"": 1}], ""abc"": [0.77127693, 0.22872307, 0.77127693], ""properties"": {""magmom"": 0.0}, ""label"": ""F"", ""xyz"": [4.291692303356322, 1.091976944453627, 7.43342914983534]}]}",NaSbF6,225,4.8757,0.0,0.000700577684749,0.0010293836430262,0.0004800611488901
mp-12904,"{""@module"": ""pymatgen.core.structure"", ""@class"": ""Structure"", ""charge"": 0, ""lattice"": {""matrix"": [[4.64161863, -0.0, 0.0], [0.0, 7.12925411, 0.0], [0.0, 0.0, 7.12925411]], ""pbc"": [true, true, true], ""a"": 4.64161863, ""b"": 7.12925411, ""c"": 7.12925411, ""alpha"": 90.0, ""beta"": 90.0, ""gamma"": 90.0, ""volume"": 235.9161346413421}, ""properties"": {}, ""sites"": [{""species"": [{""element"": ""Ho"", ""occu"": 1}], ""abc"": [0.20267325, 0.5, 0.0], ""properties"": {""magmom"": -0.0}, ""label"": ""Ho"", ""xyz"": [0.9407319330026475, 3.564627055, 0.0]}, {""species"": [{""element"": ""Ho"", ""occu"": 1}], ""abc"": [0.79732675, -0.0, 0.5], ""properties"": {""magmom"": -0.0}, ""label"": ""Ho"", ""xyz"": [3.7008866969973524, 0.0, 3.564627055]}, {""species"": [{""element"": ""Ag"", ""occu"": 1}], ""abc"": [0.0, -0.0, 0.0], ""properties"": {""magmom"": -0.0}, ""label"": ""Ag"", ""xyz"": [0.0, 0.0, 0.0]}, {""species"": [{""element"": ""Ag"", ""occu"": 1}], ""abc"": [0.0, 0.5, 0.5], ""properties"": {""magmom"": -0.0}, ""label"": ""Ag"", ""xyz"": [0.0, 3.564627055, 3.564627055]}, {""species"": [{""element"": ""Te"", ""occu"": 1}], ""abc"": [0.28409428000000003, 0.20188739, 0.70188739], ""properties"": {""magmom"": 0.0}, ""label"": ""Te"", ""xyz"": [1.3186573027244366, 1.439306504914673, 5.003933559914673]}, {""species"": [{""element"": ""Te"", ""occu"": 1}], ""abc"": [0.71590572, 0.70188739, 0.79811261], ""properties"": {""magmom"": 0.0}, ""label"": ""Te"", ""xyz"": [3.3229613272755634, 5.003933559914673, 5.689947605085327]}, {""species"": [{""element"": ""Te"", ""occu"": 1}], ""abc"": [0.28409428000000003, 0.79811261, 0.29811261], ""properties"": {""magmom"": 0.0}, ""label"": ""Te"", ""xyz"": [1.3186573027244366, 5.689947605085327, 2.125320550085327]}, {""species"": [{""element"": ""Te"", ""occu"": 1}], ""abc"": [0.71590572, 0.29811261, 0.20188739], ""properties"": {""magmom"": 0.0}, ""label"": ""Te"", ""xyz"": [3.3229613272755634, 2.125320550085327, 1.439306504914673]}]}",HoAgTe2,113,0.9467,0.0,0.1063383899253915,0.3642755349991897,0.0421236186320468