id,structure_json,formula,spacegroup,bandgap,energy_above_hull,k_1064,k_755,k_1500
mp-510625,"{""@module"": ""pymatgen.core.structure"", ""@class"": ""Structure"", ""charge"": 0, ""lattice"": {""matrix"": [[-1.34395087, -2.55236073, 0.75267766], [1.54036588, -2.55236073, 0.00019578], [4.24630996, 2.56893397, 10.37227582]], ""pbc"": [true, true, true], ""a"": 2.9811529475830265, ""b"": 2.9811528606638267, ""c"": 11.498464058506762, ""alpha"": 90.02330784672235, ""beta"": 97.47038370817288, ""gamma"": 59.993446781437115, ""volume"": 87.4933748108686}, ""properties"": {}, ""sites"": [{""species"": [{""element"": ""Cr"", ""occu"": 1}], ""abc"": [0.49998727, 0.7499862700000001, 0.75], ""properties"": {""magmom"": 2.882}, ""label"": ""Cr"", ""xyz"": [3.6680274042710423, -1.2636828995350848, 8.15568294572533]}, {""species"": [{""element"": ""Cr"", ""occu"": 1}], ""abc"": [0.49998203, 0.249982899999999, 0.25000013], ""properties"": {""magmom"": -2.882}, ""label"": ""Cr"", ""xyz"": [0.774691887560879, -1.2719472097477804, 2.9694445494304684]}, {""species"": [{""element"": ""Cu"", ""occu"": 1}], ""abc"": [8.93e-06, 1.7140000000000002e-05, 0.9999918], ""properties"": {""magmom"": 0.0}, ""label"": ""Cu"", ""xyz"": [4.246289540648242, 2.568846364697215, 10.37219749210545]}, {""species"": [{""element"": ""Cu"", ""occu"": 1}], ""abc"": [4.129e-05, 0.50003371, 0.50000758], ""properties"": {""magmom"": 0.0}, ""label"": ""Cu"", ""xyz"": [2.893366541031889, 0.008114665464742377, 5.186345506511041]}, {""species"": [{""element"": ""O"", ""occu"": 1}], ""abc"": [0.89215021, 0.55400539, 0.33814682], ""properties"": {""magmom"": 0.004}, ""label"": ""O"", ""xyz"": [1.0902411589002377, -2.8224339101641136, 4.178962080302456]}, {""species"": [{""element"": ""O"", ""occu"": 1}], ""abc"": [0.89214218, 0.05400908, 0.838135099999999], ""properties"": {""magmom"": -0.004}, ""label"": ""O"", ""xyz"": [2.4431799080230854, -0.2618055908246757, 9.364874493950653]}, {""species"": [{""element"": ""O"", ""occu"": 1}], ""abc"": [0.10783672, 0.945983599999999, 0.16185312000000002], ""properties"": {""magmom"": 0.004}, ""label"": ""O"", ""xyz"": [1.9995121223306953, -2.273939623125545, 1.7601366977084418]}, {""species"": [{""element"": ""O"", ""occu"": 1}], ""abc"": [0.10784937, 0.44598491, 0.66186446], ""properties"": {""magmom"": -0.004}, ""label"": ""O"", ""xyz"": [3.3525173323864403, 0.2867012276298815, 6.946303860945111]}]}",CrCuO2,166,0.9185999999999996,0.0,0.1624116779751538,0.4872450614125633,0.0407505488856479
mp-1078746,"{""@module"": ""pymatgen.core.structure"", ""@class"": ""Structure"", ""charge"": 0, ""lattice"": {""matrix"": [[-0.0, 3.707652249999999, 3.707652249999999], [3.707652249999999, 0.0, 3.707652249999999], [3.707652249999999, 3.707652249999999, -0.0]], ""pbc"": [true, true, true], ""a"": 5.2434120965131195, ""b"": 5.2434120965131195, ""c"": 5.2434120965131195, ""alpha"": 59.99999999999999, ""beta"": 59.99999999999999, ""gamma"": 59.99999999999999, ""volume"": 101.93585667503183}, ""properties"": {}, ""sites"": [{""species"": [{""element"": ""Sr"", ""occu"": 1}], ""abc"": [0.75, 0.75, 0.75], ""properties"": {""magmom"": -0.0}, ""label"": ""Sr"", ""xyz"": [5.561478374999998, 5.561478374999998, 5.561478374999998]}, {""species"": [{""element"": ""Sr"", ""occu"": 1}], ""abc"": [0.25, 0.25, 0.25], ""properties"": {""magmom"": -0.0}, ""label"": ""Sr"", ""xyz"": [1.8538261249999994, 1.8538261249999994, 1.8538261249999994]}, {""species"": [{""element"": ""Fe"", ""occu"": 1}], ""abc"": [0.0, -0.0, -0.0], ""properties"": {""magmom"": 0.0}, ""label"": ""Fe"", ""xyz"": [0.0, 0.0, 0.0]}, {""species"": [{""element"": ""H"", ""occu"": 1}], ""abc"": [0.78245799, 0.78245799, 0.21754201], ""properties"": {""magmom"": 0.0}, ""label"": ""H"", ""xyz"": [3.707652249999999, 3.707652249999999, 5.802164254307954]}, {""species"": [{""element"": ""H"", ""occu"": 1}], ""abc"": [0.21754201, 0.78245799, 0.21754201], ""properties"": {""magmom"": 0.0}, ""label"": ""H"", ""xyz"": [3.707652249999999, 1.6131402456920445, 3.707652249999999]}, {""species"": [{""element"": ""H"", ""occu"": 1}], ""abc"": [0.78245799, 0.21754201, 0.21754201], ""properties"": {""magmom"": 0.0}, ""label"": ""H"", ""xyz"": [1.6131402456920445, 3.707652249999999, 3.707652249999999]}, {""species"": [{""element"": ""H"", ""occu"": 1}], ""abc"": [0.21754201, 0.21754201, 0.78245799], ""properties"": {""magmom"": 0.0}, ""label"": ""H"", ""xyz"": [3.707652249999999, 3.707652249999999, 1.6131402456920445]}, {""species"": [{""element"": ""H"", ""occu"": 1}], ""abc"": [0.78245799, 0.21754201, 0.78245799], ""properties"": {""magmom"": 0.0}, ""label"": ""H"", ""xyz"": [3.707652249999999, 5.802164254307954, 3.707652249999999]}, {""species"": [{""element"": ""H"", ""occu"": 1}], ""abc"": [0.21754201, 0.78245799, 0.78245799], ""properties"": {""magmom"": 0.0}, ""label"": ""H"", ""xyz"": [5.802164254307954, 3.707652249999999, 3.707652249999999]}]}",Sr2FeH6,225,1.2175000000000002,0.0,0.0092194388194011,0.0403878873215007,0.0054264602722158
mp-5175,"{""@module"": ""pymatgen.core.structure"", ""@class"": ""Structure"", ""charge"": 0, ""lattice"": {""matrix"": [[3.10397425, -0.00680843, 4.82905631], [1.413046169999999, 2.76369401, 4.82905631], [-0.01115496, -0.00680843, 5.74058535]], ""pbc"": [true, true, true], ""a"": 5.740599911553927, ""b"": 5.7406000474351435, ""c"": 5.740600225454329, ""alpha"": 32.843023361181814, ""beta"": 32.84301953925312, ""gamma"": 32.84303025098924, ""volume"": 49.5053026102216}, ""properties"": {}, ""sites"": [{""species"": [{""element"": ""Na"", ""occu"": 1}], ""abc"": [0.5, 0.5, 0.5], ""properties"": {""magmom"": -0.0}, ""label"": ""Na"", ""xyz"": [2.2529327299999995, 1.375038575, 7.699348985]}, {""species"": [{""element"": ""In"", ""occu"": 1}], ""abc"": [0.0, 0.0, -0.0], ""properties"": {""magmom"": -0.0}, ""label"": ""In"", ""xyz"": [0.0, 0.0, 0.0]}, {""species"": [{""element"": ""O"", ""occu"": 1}], ""abc"": [0.73844513, 0.73844513, 0.73844513], ""properties"": {""magmom"": 0.0}, ""label"": ""O"", ""xyz"": [3.327334405372209, 2.0307810785417795, 11.371093524287387]}, {""species"": [{""element"": ""O"", ""occu"": 1}], ""abc"": [0.26155487, 0.26155487, 0.26155487], ""properties"": {""magmom"": 0.0}, ""label"": ""O"", ""xyz"": [1.17853105462779, 0.7192960714582204, 4.027604445712614]}]}",NaInO2,166,1.9283,0.0,0.0066176287278524,0.0125878094743881,0.004407010265953
mp-23475,"{""@module"": ""pymatgen.core.structure"", ""@class"": ""Structure"", ""charge"": 0, ""lattice"": {""matrix"": [[6.29359752, 0.0, 3.63361082], [2.09786618, 5.93366159, 3.63361082], [0.0, -0.0, 7.26722163]], ""pbc"": [true, true, true], ""a"": 7.267220743514759, ""b"": 7.267221612490581, ""c"": 7.26722163, ""alpha"": 59.999999874779625, ""beta"": 59.999995919279925, ""gamma"": 59.9999985544124, ""volume"": 271.38769042996114}, ""properties"": {}, ""sites"": [{""species"": [{""element"": ""Rb"", ""occu"": 1}], ""abc"": [0.25, 0.25, 0.25], ""properties"": {""magmom"": -0.0}, ""label"": ""Rb"", ""xyz"": [2.097865925, 1.4834153975, 3.6336108175]}, {""species"": [{""element"": ""Rb"", ""occu"": 1}], ""abc"": [0.75, 0.75, 0.75], ""properties"": {""magmom"": -0.0}, ""label"": ""Rb"", ""xyz"": [6.293597775, 4.4502461925, 10.9008324525]}, {""species"": [{""element"": ""Pb"", ""occu"": 1}], ""abc"": [-0.0, -0.0, -0.0], ""properties"": {""magmom"": -0.0}, ""label"": ""Pb"", ""xyz"": [0.0, 0.0, 0.0]}, {""species"": [{""element"": ""Cl"", ""occu"": 1}], ""abc"": [0.24716231, 0.75283769, 0.75283769], ""properties"": {""magmom"": -0.0}, ""label"": ""Cl"", ""xyz"": [3.1348928301337953, 4.467084084657327, 9.104649164647235]}, {""species"": [{""element"": ""Cl"", ""occu"": 1}], ""abc"": [0.24716231, 0.75283769, 0.24716231], ""properties"": {""magmom"": -0.0}, ""label"": ""Cl"", ""xyz"": [3.1348928301337953, 4.467084084657327, 5.429794105352765]}, {""species"": [{""element"": ""Cl"", ""occu"": 1}], ""abc"": [0.75283769, 0.24716231, 0.75283769], ""properties"": {""magmom"": -0.0}, ""label"": ""Cl"", ""xyz"": [5.256570869866204, 1.4665775053426728, 9.104649164647235]}, {""species"": [{""element"": ""Cl"", ""occu"": 1}], ""abc"": [0.75283769, 0.24716231, 0.24716231], ""properties"": {""magmom"": -0.0}, ""label"": ""Cl"", ""xyz"": [5.256570869866204, 1.4665775053426728, 5.429794105352765]}, {""species"": [{""element"": ""Cl"", ""occu"": 1}], ""abc"": [0.75283769, 0.75283769, 0.24716231], ""properties"": {""magmom"": -0.0}, ""label"": ""Cl"", ""xyz"": [6.317410147626853, 4.467084084657327, 7.267221637528377]}, {""species"": [{""element"": ""Cl"", ""occu"": 1}], ""abc"": [0.24716231, 0.24716231, 0.75283769], ""properties"": {""magmom"": -0.0}, ""label"": ""Cl"", ""xyz"": [2.074053552373147, 1.4665775053426728, 7.267221632471623]}]}",Rb2PbCl6,225,1.3051,0.0,0.0133661427932856,0.0647553776497564,0.0071062985503141
mp-665922,"{""@module"": ""pymatgen.core.structure"", ""@class"": ""Structure"", ""charge"": 0, ""lattice"": {""matrix"": [[6.47120873, -1.92402608, 0.00788768], [6.47120873, 1.92402608, 0.00788768], [5.8951544, -0.0, 3.290232999999999]], ""pbc"": [true, true, true], ""a"": 6.75118367393779, ""b"": 6.75118367393779, ""c"": 6.751183495812297, ""alpha"": 33.11661307975223, ""beta"": 33.11661307975223, ""gamma"": 33.11661226067745, ""volume"": 81.75296645746756}, ""properties"": {}, ""sites"": [{""species"": [{""element"": ""Sr"", ""occu"": 1}], ""abc"": [0.5, 0.5, 0.5], ""properties"": {""magmom"": 0.0}, ""label"": ""Sr"", ""xyz"": [9.41878593, 0.0, 1.6530041799999995]}, {""species"": [{""element"": ""Hg"", ""occu"": 1}], ""abc"": [-0.0, -0.0, 0.0], ""properties"": {""magmom"": 0.0}, ""label"": ""Hg"", ""xyz"": [0.0, 0.0, 0.0]}, {""species"": [{""element"": ""O"", ""occu"": 1}], ""abc"": [0.89632057, 0.89632057, 0.89632057], ""properties"": {""magmom"": -0.0}, ""label"": ""O"", ""xyz"": [16.88450314697116, 0.0, 2.9632432976599645]}, {""species"": [{""element"": ""O"", ""occu"": 1}], ""abc"": [0.10367943, 0.10367943, 0.10367943], ""properties"": {""magmom"": -0.0}, ""label"": ""O"", ""xyz"": [1.95306871302884, 0.0, 0.3427650623400347]}]}",SrHgO2,166,2.1842,0.0,0.0063437756315333,0.0106746355976088,0.0042401961284841
mp-999474,"{""@module"": ""pymatgen.core.structure"", ""@class"": ""Structure"", ""charge"": 0, ""lattice"": {""matrix"": [[-2.04937915, -3.54962999, -0.0], [-4.09876034, 1e-08, 0.0], [-2.04937915, -1.18321067, -6.92603585]], ""pbc"": [true, true, true], ""a"": 4.098759320375145, ""b"": 4.09876034, ""c"": 7.319147148783237, ""alpha"": 73.73964895759134, ""beta"": 73.73964279227931, ""gamma"": 60.00000837489876, ""volume"": 100.7674679851322}, ""properties"": {}, ""sites"": [{""species"": [{""element"": ""Na"", ""occu"": 1}], ""abc"": [0.5, 0.5, 0.5], ""properties"": {""magmom"": 0.0}, ""label"": ""Na"", ""xyz"": [-4.09875932, -2.366420325, -3.463017925]}, {""species"": [{""element"": ""Ho"", ""occu"": 1}], ""abc"": [0.0, -0.0, 0.0], ""properties"": {""magmom"": -0.0}, ""label"": ""Ho"", ""xyz"": [0.0, 0.0, 0.0]}, {""species"": [{""element"": ""Se"", ""occu"": 1}], ""abc"": [0.74337713, 0.74337713, 0.7698686100000001], ""properties"": {""magmom"": 0.0}, ""label"": ""Se"", ""xyz"": [-6.148138966489345, -3.5496305009444264, -5.332137592649669]}, {""species"": [{""element"": ""Se"", ""occu"": 1}], ""abc"": [0.25662287, 0.25662287, 0.23013139], ""properties"": {""magmom"": 0.0}, ""label"": ""Se"", ""xyz"": [-2.049379673510655, -1.183210149055574, -1.5938982573503313]}]}",NaHoSe2,166,1.9185,0.0,0.0152245574631172,0.0260220100467425,0.0095165393471796
mp-23046,"{""@module"": ""pymatgen.core.structure"", ""@class"": ""Structure"", ""charge"": 0, ""lattice"": {""matrix"": [[4.27610854, 0.0, -0.0], [-0.0, 4.27610854, -0.0], [0.0, -0.0, 8.97879985]], ""pbc"": [true, true, true], ""a"": 4.27610854, ""b"": 4.27610854, ""c"": 8.97879985, ""alpha"": 90.0, ""beta"": 90.0, ""gamma"": 90.0, ""volume"": 164.1782912599705}, ""properties"": {}, ""sites"": [{""species"": [{""element"": ""Sr"", ""occu"": 1}], ""abc"": [0.25, 0.25, 0.14782338], ""properties"": {""magmom"": 0.0}, ""label"": ""Sr"", ""xyz"": [1.069027135, 1.069027135, 1.327276542170493]}, {""species"": [{""element"": ""Sr"", ""occu"": 1}], ""abc"": [0.75, 0.75, 0.85217662], ""properties"": {""magmom"": 0.0}, ""label"": ""Sr"", ""xyz"": [3.2070814050000003, 3.2070814050000003, 7.651523307829507]}, {""species"": [{""element"": ""I"", ""occu"": 1}], ""abc"": [0.25, 0.25, 0.67335529], ""properties"": {""magmom"": -0.0}, ""label"": ""I"", ""xyz"": [1.069027135, 1.069027135, 6.045922376848707]}, {""species"": [{""element"": ""I"", ""occu"": 1}], ""abc"": [0.75, 0.75, 0.32664471], ""properties"": {""magmom"": -0.0}, ""label"": ""I"", ""xyz"": [3.2070814050000003, 3.2070814050000003, 2.9328774731512937]}, {""species"": [{""element"": ""F"", ""occu"": 1}], ""abc"": [0.25, 0.75, 0.0], ""properties"": {""magmom"": 0.0}, ""label"": ""F"", ""xyz"": [1.069027135, 3.2070814050000003, 0.0]}, {""species"": [{""element"": ""F"", ""occu"": 1}], ""abc"": [0.75, 0.25, 0.0], ""properties"": {""magmom"": 0.0}, ""label"": ""F"", ""xyz"": [3.2070814050000003, 1.069027135, 0.0]}]}",SrIF,129,4.2962,0.0,0.0032650037832677,0.0050162200226939,0.0022305483403427
mp-10322,"{""@module"": ""pymatgen.core.structure"", ""@class"": ""Structure"", ""charge"": 0, ""lattice"": {""matrix"": [[4.13241419, 0.0, 0.0], [-0.0, 4.13241419, 0.0], [-0.0, -0.0, 8.42759229]], ""pbc"": [true, true, true], ""a"": 4.13241419, ""b"": 4.13241419, ""c"": 8.42759229, ""alpha"": 90.0, ""beta"": 90.0, ""gamma"": 90.0, ""volume"": 143.91670443254245}, ""properties"": {}, ""sites"": [{""species"": [{""element"": ""Ba"", ""occu"": 1}], ""abc"": [0.75, 0.75, 0.15228486], ""properties"": {""magmom"": -0.0}, ""label"": ""Ba"", ""xyz"": [3.0993106425000003, 3.0993106425000003, 1.2833947120197293]}, {""species"": [{""element"": ""Ba"", ""occu"": 1}], ""abc"": [0.25, 0.25, 0.84771514], ""properties"": {""magmom"": -0.0}, ""label"": ""Ba"", ""xyz"": [1.0331035475, 1.0331035475, 7.144197577980271]}, {""species"": [{""element"": ""Hf"", ""occu"": 1}], ""abc"": [0.25, 0.25, 0.41538643000000003], ""properties"": {""magmom"": -0.0}, ""label"": ""Hf"", ""xyz"": [1.0331035475, 1.0331035475, 3.5007074748386247]}, {""species"": [{""element"": ""Hf"", ""occu"": 1}], ""abc"": [0.75, 0.75, 0.58461357], ""properties"": {""magmom"": -0.0}, ""label"": ""Hf"", ""xyz"": [3.0993106425000003, 3.0993106425000003, 4.926884815161375]}, {""species"": [{""element"": ""N"", ""occu"": 1}], ""abc"": [0.75, 0.75, 0.81902593], ""properties"": {""magmom"": 0.0}, ""label"": ""N"", ""xyz"": [3.0993106425000003, 3.0993106425000003, 6.9024166129780795]}, {""species"": [{""element"": ""N"", ""occu"": 1}], ""abc"": [0.25, 0.25, 0.18097407000000001], ""properties"": {""magmom"": 0.0}, ""label"": ""N"", ""xyz"": [1.0331035475, 1.0331035475, 1.5251756770219205]}, {""species"": [{""element"": ""N"", ""occu"": 1}], ""abc"": [0.75, 0.25, 0.5], ""properties"": {""magmom"": -0.0}, ""label"": ""N"", ""xyz"": [3.0993106425000003, 1.0331035475, 4.213796145]}, {""species"": [{""element"": ""N"", ""occu"": 1}], ""abc"": [0.25, 0.75, 0.5], ""properties"": {""magmom"": -0.0}, ""label"": ""N"", ""xyz"": [1.0331035475, 3.0993106425000003, 4.213796145]}]}",BaHfN2,129,1.2525000000000004,0.0,0.0922593961391767,0.1646804289895227,0.0217071954106903
mp-12442,"{""@module"": ""pymatgen.core.structure"", ""@class"": ""Structure"", ""charge"": 0, ""lattice"": {""matrix"": [[4.92769654, -0.03548564, -0.71999833], [-0.82776299, 4.85780322, -0.71999832], [-0.030169699999999, -0.03548564, 4.97992818]], ""pbc"": [true, true, true], ""a"": 4.980145581825592, ""b"": 4.9801447039879205, ""c"": 4.9801459937839585, ""alpha"": 98.65653604751489, ""beta"": 98.65653229066257, ""gamma"": 98.65653833826316, ""volume"": 118.80880449814094}, ""properties"": {}, ""sites"": [{""species"": [{""element"": ""K"", ""occu"": 1}], ""abc"": [0.5, 0.5, 0.5], ""properties"": {""magmom"": 0.0}, ""label"": ""K"", ""xyz"": [2.0348819250000005, 2.39341597, 1.769965765]}, {""species"": [{""element"": ""Au"", ""occu"": 1}], ""abc"": [0.0, 0.0, -0.0], ""properties"": {""magmom"": 0.0}, ""label"": ""Au"", ""xyz"": [0.0, 0.0, 0.0]}, {""species"": [{""element"": ""F"", ""occu"": 1}], ""abc"": [0.7225254, 0.07325887, 0.7225254], ""properties"": {""magmom"": -0.0}, ""label"": ""F"", ""xyz"": [3.477946557806516, 0.3045986221090494, 3.025161255518092]}, {""species"": [{""element"": ""F"", ""occu"": 1}], ""abc"": [0.07325887, 0.7225254, 0.7225254], ""properties"": {""magmom"": -0.0}, ""label"": ""F"", ""xyz"": [-0.2588806797920154, 3.4816473005289055, 3.025161262010757]}, {""species"": [{""element"": ""F"", ""occu"": 1}], ""abc"": [0.277474599999999, 0.277474599999999, 0.92674113], ""properties"": {""magmom"": -0.0}, ""label"": ""F"", ""xyz"": [1.109667919943066, 1.3051846394710902, 4.215541774391955]}, {""species"": [{""element"": ""F"", ""occu"": 1}], ""abc"": [0.92674113, 0.277474599999999, 0.277474599999999], ""properties"": {""magmom"": -0.0}, ""label"": ""F"", ""xyz"": [4.328644529792018, 1.3051846394710902, 0.514770267989239]}, {""species"": [{""element"": ""F"", ""occu"": 1}], ""abc"": [0.277474599999999, 0.92674113, 0.277474599999999], ""properties"": {""magmom"": -0.0}, ""label"": ""F"", ""xyz"": [0.5918172921934808, 4.482233317890951, 0.5147702744819043]}, {""species"": [{""element"": ""F"", ""occu"": 1}], ""abc"": [0.7225254, 0.7225254, 0.07325887], ""properties"": {""magmom"": -0.0}, ""label"": ""F"", ""xyz"": [2.9600959300569314, 3.4816473005289055, -0.6756102443919536]}]}",KAuF6,166,2.0043999999999995,0.0,0.0070510710680435,0.0126101242842557,0.0044675054712812
mp-9363,"{""@module"": ""pymatgen.core.structure"", ""@class"": ""Structure"", ""charge"": 0, ""lattice"": {""matrix"": [[7.77159955, -2.10837572, -0.00264999], [7.77159955, 2.10837572, -0.00264999], [7.20084259, -0.0, 3.60428484]], ""pbc"": [true, true, true], ""a"": 8.052516051812175, ""b"": 8.052516051812175, ""c"": 8.052515334590288, ""alpha"": 30.357136082784088, ""beta"": 30.357136082784088, ""gamma"": 30.35713658201747, ""volume"": 118.19613574465488}, ""properties"": {}, ""sites"": [{""species"": [{""element"": ""Rb"", ""occu"": 1}], ""abc"": [0.0, 0.0, -0.0], ""properties"": {""magmom"": 0.0}, ""label"": ""Rb"", ""xyz"": [0.0, 0.0, 0.0]}, {""species"": [{""element"": ""Nd"", ""occu"": 1}], ""abc"": [0.5, 0.5, 0.5], ""properties"": {""magmom"": -0.0}, ""label"": ""Nd"", ""xyz"": [11.372020845, 0.0, 1.79949243]}, {""species"": [{""element"": ""S"", ""occu"": 1}], ""abc"": [0.76722615, 0.76722615, 0.76722615], ""properties"": {""magmom"": -0.0}, ""label"": ""S"", ""xyz"": [17.449823541258194, 0.0, 2.761235298046089]}, {""species"": [{""element"": ""S"", ""occu"": 1}], ""abc"": [0.23277385, 0.23277385, 0.23277385], ""properties"": {""magmom"": -0.0}, ""label"": ""S"", ""xyz"": [5.294218148741807, 0.0, 0.837749561953911]}]}",RbNdS2,166,2.293,0.0,0.0107947126117231,0.0184245892923724,0.0068472230271041