id,structure_json,formula,spacegroup,bandgap,energy_above_hull,k_1064,k_755,k_1500
mp-1079896,"{""@module"": ""pymatgen.core.structure"", ""@class"": ""Structure"", ""charge"": 0, ""lattice"": {""matrix"": [[0.0, 3.59668606, 3.59668606], [3.59668606, -0.0, 3.59668606], [3.59668606, 3.59668606, 0.0]], ""pbc"": [true, true, true], ""a"": 5.086482205650252, ""b"": 5.086482205650252, ""c"": 5.086482205650252, ""alpha"": 60.00000000000001, ""beta"": 60.00000000000001, ""gamma"": 60.00000000000001, ""volume"": 93.0545451682951}, ""properties"": {}, ""sites"": [{""species"": [{""element"": ""Ca"", ""occu"": 1}], ""abc"": [0.75, 0.75, 0.75], ""properties"": {""magmom"": -0.0}, ""label"": ""Ca"", ""xyz"": [5.39502909, 5.39502909, 5.39502909]}, {""species"": [{""element"": ""Ca"", ""occu"": 1}], ""abc"": [0.25, 0.25, 0.25], ""properties"": {""magmom"": -0.0}, ""label"": ""Ca"", ""xyz"": [1.79834303, 1.79834303, 1.79834303]}, {""species"": [{""element"": ""H"", ""occu"": 1}], ""abc"": [0.76290069, 0.76290069, 0.23709931], ""properties"": {""magmom"": 0.0}, ""label"": ""H"", ""xyz"": [3.5966860600000006, 3.5966860600000006, 5.487828553774763]}, {""species"": [{""element"": ""H"", ""occu"": 1}], ""abc"": [0.23709931, 0.76290069, 0.23709931], ""properties"": {""magmom"": 0.0}, ""label"": ""H"", ""xyz"": [3.5966860600000006, 1.7055435662252374, 3.5966860600000006]}, {""species"": [{""element"": ""H"", ""occu"": 1}], ""abc"": [0.76290069, 0.23709931, 0.23709931], ""properties"": {""magmom"": 0.0}, ""label"": ""H"", ""xyz"": [1.7055435662252374, 3.5966860600000006, 3.5966860600000006]}, {""species"": [{""element"": ""H"", ""occu"": 1}], ""abc"": [0.23709931, 0.23709931, 0.76290069], ""properties"": {""magmom"": 0.0}, ""label"": ""H"", ""xyz"": [3.5966860600000006, 3.5966860600000006, 1.7055435662252374]}, {""species"": [{""element"": ""H"", ""occu"": 1}], ""abc"": [0.76290069, 0.23709931, 0.76290069], ""properties"": {""magmom"": 0.0}, ""label"": ""H"", ""xyz"": [3.5966860600000006, 5.487828553774763, 3.5966860600000006]}, {""species"": [{""element"": ""H"", ""occu"": 1}], ""abc"": [0.23709931, 0.76290069, 0.76290069], ""properties"": {""magmom"": 0.0}, ""label"": ""H"", ""xyz"": [5.487828553774763, 3.5966860600000006, 3.5966860600000006]}, {""species"": [{""element"": ""Ru"", ""occu"": 1}], ""abc"": [0.0, -0.0, -0.0], ""properties"": {""magmom"": -0.0}, ""label"": ""Ru"", ""xyz"": [0.0, 0.0, 0.0]}]}",Ca2H6Ru,225,2.3835,0.0,0.0064975544560443,0.0098649323903895,0.0043529229997388
mp-551900,"{""@module"": ""pymatgen.core.structure"", ""@class"": ""Structure"", ""charge"": 0, ""lattice"": {""matrix"": [[3.993484, 0.0, 0.0], [0.0, 3.993484, 0.0], [0.0, 0.0, 9.465344]], ""pbc"": [true, true, true], ""a"": 3.993484, ""b"": 3.993484, ""c"": 9.465344, ""alpha"": 90.0, ""beta"": 90.0, ""gamma"": 90.0, ""volume"": 150.9524964299667}, ""properties"": {}, ""sites"": [{""species"": [{""element"": ""Pr"", ""occu"": 1}], ""abc"": [0.0, 0.0, 0.0], ""properties"": {""magmom"": -0.0}, ""label"": ""Pr"", ""xyz"": [0.0, 0.0, 0.0]}, {""species"": [{""element"": ""Bi"", ""occu"": 1}], ""abc"": [0.5, 0.5, 0.728139], ""properties"": {""magmom"": -0.0}, ""label"": ""Bi"", ""xyz"": [1.996742, 1.996742, 6.892086114816]}, {""species"": [{""element"": ""Bi"", ""occu"": 1}], ""abc"": [0.5, 0.5, 0.271860999999999], ""properties"": {""magmom"": -0.0}, ""label"": ""Bi"", ""xyz"": [1.996742, 1.996742, 2.573257885183991]}, {""species"": [{""element"": ""Br"", ""occu"": 1}], ""abc"": [0.0, 0.0, 0.5], ""properties"": {""magmom"": 0.0}, ""label"": ""Br"", ""xyz"": [0.0, 0.0, 4.732672]}, {""species"": [{""element"": ""O"", ""occu"": 1}], ""abc"": [0.0, 0.5, 0.842832999999999], ""properties"": {""magmom"": 0.0}, ""label"": ""O"", ""xyz"": [0.0, 1.996742, 7.9777042795519915]}, {""species"": [{""element"": ""O"", ""occu"": 1}], ""abc"": [0.0, 0.5, 0.157167], ""properties"": {""magmom"": 0.0}, ""label"": ""O"", ""xyz"": [0.0, 1.996742, 1.487639720448]}, {""species"": [{""element"": ""O"", ""occu"": 1}], ""abc"": [0.5, 0.0, 0.157167], ""properties"": {""magmom"": 0.0}, ""label"": ""O"", ""xyz"": [1.996742, 0.0, 1.487639720448]}, {""species"": [{""element"": ""O"", ""occu"": 1}], ""abc"": [0.5, 0.0, 0.842832999999999], ""properties"": {""magmom"": 0.0}, ""label"": ""O"", ""xyz"": [1.996742, 0.0, 7.9777042795519915]}]}",PrBi2BrO4,123,1.2289,0.0,0.0131270642993424,0.0374088805782167,0.0078797364691141
mp-28306,"{""@module"": ""pymatgen.core.structure"", ""@class"": ""Structure"", ""charge"": 0, ""lattice"": {""matrix"": [[3.87141839, 2e-08, -0.0], [-1.93570816, 3.3527452, 0.0], [-0.0, 0.0, 6.48342778]], ""pbc"": [true, true, true], ""a"": 3.87141839, ""b"": 3.871416595616342, ""c"": 6.48342778, ""alpha"": 90.0, ""beta"": 90.0, ""gamma"": 119.99999734897294, ""volume"": 84.15411109132559}, ""properties"": {}, ""sites"": [{""species"": [{""element"": ""Mn"", ""occu"": 1}], ""abc"": [0.0, -0.0, -0.0], ""properties"": {""magmom"": 4.524}, ""label"": ""Mn"", ""xyz"": [0.0, 0.0, 0.0]}, {""species"": [{""element"": ""Br"", ""occu"": 1}], ""abc"": [0.333333, 0.666667, 0.23212694], ""properties"": {""magmom"": 0.084}, ""label"": ""Br"", ""xyz"": [-1.2457088498507574e-06, 2.23516459091506, 1.5049782512823933]}, {""species"": [{""element"": ""Br"", ""occu"": 1}], ""abc"": [0.666667, 0.333333, 0.76787306], ""properties"": {""magmom"": 0.084}, ""label"": ""Br"", ""xyz"": [1.93571147570885, 1.11758062908494, 4.978449528717607]}]}",MnBr2,164,1.5643000000000002,0.0,0.0053206458005401,0.0085520269650378,0.0035701438526213
mp-1222404,"{""@module"": ""pymatgen.core.structure"", ""@class"": ""Structure"", ""charge"": 0, ""lattice"": {""matrix"": [[6.39383571, -1.97961711, -0.00348869], [6.39383571, 1.97961711, -0.00348869], [5.78276047, -0.0, 3.37041625]], ""pbc"": [true, true, true], ""a"": 6.693282539952567, ""b"": 6.693282539952567, ""c"": 6.693282031384804, ""alpha"": 34.406441015515334, ""beta"": 34.406441015515334, ""gamma"": 34.406444435945446, ""volume"": 85.40092773823045}, ""properties"": {}, ""sites"": [{""species"": [{""element"": ""Li"", ""occu"": 1}], ""abc"": [0.5, 0.5, 0.5], ""properties"": {""magmom"": 0.0}, ""label"": ""Li"", ""xyz"": [9.285215945000001, 0.0, 1.681719435]}, {""species"": [{""element"": ""Bi"", ""occu"": 1}], ""abc"": [-0.0, -0.0, 0.0], ""properties"": {""magmom"": 0.0}, ""label"": ""Bi"", ""xyz"": [0.0, 0.0, 0.0]}, {""species"": [{""element"": ""S"", ""occu"": 1}], ""abc"": [0.24555523, 0.24555523, 0.24555523], ""properties"": {""magmom"": -0.0}, ""label"": ""S"", ""xyz"": [4.560066673948286, 0.0, 0.8259100053137901]}, {""species"": [{""element"": ""S"", ""occu"": 1}], ""abc"": [0.75444477, 0.75444477, 0.75444477], ""properties"": {""magmom"": -0.0}, ""label"": ""S"", ""xyz"": [14.010365216051715, 0.0, 2.5375288646862098]}]}",LiBiS2,166,1.3982000000000006,0.0,0.0355930045355588,0.0726171468030171,0.0214942578413628
mp-661,"{""@module"": ""pymatgen.core.structure"", ""@class"": ""Structure"", ""charge"": 0, ""lattice"": {""matrix"": [[3.128588, 0.0, 0.0], [-1.564293999999999, 2.709437, 0.0], [0.0, 0.0, 5.016955]], ""pbc"": [true, true, true], ""a"": 3.128588, ""b"": 3.1285882719535016, ""c"": 5.016955, ""alpha"": 90.0, ""beta"": 90.0, ""gamma"": 119.99999712453396, ""volume"": 42.52728307818043}, ""properties"": {}, ""sites"": [{""species"": [{""element"": ""Al"", ""occu"": 1}], ""abc"": [0.666667, 0.333333, 0.499287], ""properties"": {""magmom"": 0.0}, ""label"": ""Al"", ""xyz"": [1.5642955642940006, 0.9031447635209999, 2.504900411085]}, {""species"": [{""element"": ""Al"", ""occu"": 1}], ""abc"": [0.333333, 0.666667, 0.999286999999999], ""properties"": {""magmom"": 0.0}, ""label"": ""Al"", ""xyz"": [-1.5642939992233096e-06, 1.806292236479, 5.013377911084995]}, {""species"": [{""element"": ""N"", ""occu"": 1}], ""abc"": [0.666667, 0.333333, 0.880713], ""properties"": {""magmom"": -0.0}, ""label"": ""N"", ""xyz"": [1.5642955642940006, 0.9031447635209999, 4.418497488915]}, {""species"": [{""element"": ""N"", ""occu"": 1}], ""abc"": [0.333333, 0.666667, 0.380712999999999], ""properties"": {""magmom"": -0.0}, ""label"": ""N"", ""xyz"": [-1.5642939992233096e-06, 1.806292236479, 1.9100199889149951]}]}",AlN,186,4.0589,0.0,0.0030078448579504,0.0045117209452198,0.0020647752828788
mp-1216536,"{""@module"": ""pymatgen.core.structure"", ""@class"": ""Structure"", ""charge"": 0, ""lattice"": {""matrix"": [[3.76438059, 0.0, -0.0], [0.0, 3.76438059, 0.0], [-0.0, 0.0, 5.29860992]], ""pbc"": [true, true, true], ""a"": 3.76438059, ""b"": 3.76438059, ""c"": 5.29860992, ""alpha"": 90.0, ""beta"": 90.0, ""gamma"": 90.0, ""volume"": 75.08427628600481}, ""properties"": {}, ""sites"": [{""species"": [{""element"": ""Tm"", ""occu"": 1}], ""abc"": [-0.0, 0.0, 0.0], ""properties"": {""magmom"": -0.0}, ""label"": ""Tm"", ""xyz"": [0.0, 0.0, 0.0]}, {""species"": [{""element"": ""Pa"", ""occu"": 1}], ""abc"": [0.5, 0.5, 0.5], ""properties"": {""magmom"": 0.0}, ""label"": ""Pa"", ""xyz"": [1.882190295, 1.882190295, 2.64930496]}, {""species"": [{""element"": ""O"", ""occu"": 1}], ""abc"": [0.5, 0.0, 0.74464874], ""properties"": {""magmom"": 0.0}, ""label"": ""O"", ""xyz"": [1.882190295, 0.0, 3.9456032006795008]}, {""species"": [{""element"": ""O"", ""occu"": 1}], ""abc"": [0.0, 0.5, 0.25535126], ""properties"": {""magmom"": 0.0}, ""label"": ""O"", ""xyz"": [0.0, 1.882190295, 1.3530067193204993]}, {""species"": [{""element"": ""O"", ""occu"": 1}], ""abc"": [0.5, 0.0, 0.25535126], ""properties"": {""magmom"": 0.0}, ""label"": ""O"", ""xyz"": [1.882190295, 0.0, 1.3530067193204993]}, {""species"": [{""element"": ""O"", ""occu"": 1}], ""abc"": [-0.0, 0.5, 0.74464874], ""properties"": {""magmom"": 0.0}, ""label"": ""O"", ""xyz"": [0.0, 1.882190295, 3.9456032006795008]}]}",TmPaO4,123,2.4816000000000003,0.0,0.0062967017341243,0.010385713006799,0.0042901733686115
mp-540584,"{""@module"": ""pymatgen.core.structure"", ""@class"": ""Structure"", ""charge"": 0, ""lattice"": {""matrix"": [[3.00700197, 0.0, 0.8953872700000001], [1.01600056, 4.93382803, 2.08487488], [0.01346544, 0.01665017, 5.45171149]], ""pbc"": [true, true, true], ""a"": 3.1374797546537145, ""b"": 5.4517537942197105, ""c"": 5.451753545092941, ""alpha"": 67.31626812233193, ""beta"": 73.27674529939543, ""gamma"": 73.27673755160573, ""volume"": 80.73303568886419}, ""properties"": {}, ""sites"": [{""species"": [{""element"": ""K"", ""occu"": 1}], ""abc"": [0.17522138, 0.32477862, 0.32477862], ""properties"": {""magmom"": -0.0}, ""label"": ""K"", ""xyz"": [0.8612395816630387, 1.607809478136084, 2.604613113843242]}, {""species"": [{""element"": ""K"", ""occu"": 1}], ""abc"": [0.82477862, 0.67522138, 0.67522138], ""properties"": {""magmom"": -0.0}, ""label"": ""K"", ""xyz"": [3.1752283883369614, 3.342668721863916, 5.827360526156758]}, {""species"": [{""element"": ""Pd"", ""occu"": 1}], ""abc"": [0.0, -0.0, 0.0], ""properties"": {""magmom"": -0.0}, ""label"": ""Pd"", ""xyz"": [0.0, 0.0, 0.0]}, {""species"": [{""element"": ""O"", ""occu"": 1}], ""abc"": [0.5, 0.2209438, 0.7790562], ""properties"": {""magmom"": 0.0}, ""label"": ""O"", ""xyz"": [1.738470344046256, 1.103070131664268, 5.155523450407482]}, {""species"": [{""element"": ""O"", ""occu"": 1}], ""abc"": [0.5, 0.7790562, 0.2209438], ""properties"": {""magmom"": 0.0}, ""label"": ""O"", ""xyz"": [2.297997625953744, 3.847408068335732, 3.276450189592518]}]}",K2PdO2,71,1.2969,0.0,0.0123525213894595,0.0312422407488966,0.0077173995561528
mp-28233,"{""@module"": ""pymatgen.core.structure"", ""@class"": ""Structure"", ""charge"": 0, ""lattice"": {""matrix"": [[3.59437804, 0.04392069, 5.33949282], [1.66221036, 3.18724695, 5.3394928], [0.07145149, 0.043920680000000004, 6.43619748]], ""pbc"": [true, true, true], ""a"": 6.436743438748811, ""b"": 6.436743723531913, ""c"": 6.4367439239970725, ""alpha"": 33.3103562670813, ""beta"": 33.31035401710786, ""gamma"": 33.31035371048289, ""volume"": 71.61195211117794}, ""properties"": {}, ""sites"": [{""species"": [{""element"": ""Mn"", ""occu"": 1}], ""abc"": [0.0, -0.0, 0.0], ""properties"": {""magmom"": 4.538}, ""label"": ""Mn"", ""xyz"": [0.0, 0.0, 0.0]}, {""species"": [{""element"": ""Cl"", ""occu"": 1}], ""abc"": [0.7427978, 0.7427978, 0.7427978], ""properties"": {""magmom"": 0.085}, ""label"": ""Cl"", ""xyz"": [3.9576563086042413, 2.4327283989016957, 12.71312035327718]}, {""species"": [{""element"": ""Cl"", ""occu"": 1}], ""abc"": [0.2572022, 0.2572022, 0.2572022], ""properties"": {""magmom"": 0.085}, ""label"": ""Cl"", ""xyz"": [1.3703835813957579, 0.8423599210983039, 4.4020627467228195]}]}",MnCl2,166,1.7764000000000002,0.0,0.003150386058846,0.0049180650639503,0.0022548021633065
mp-1007636,"{""@module"": ""pymatgen.core.structure"", ""@class"": ""Structure"", ""charge"": 0, ""lattice"": {""matrix"": [[-1.971647229999999, -3.41499159, -0.0], [-3.94329344, -1e-08, -0.0], [-1.971647229999999, -1.138330869999999, -7.29737826]], ""pbc"": [true, true, true], ""a"": 3.9432930856502915, ""b"": 3.94329344, ""c"": 7.644273637088239, ""alpha"": 75.05304133103655, ""beta"": 75.05304084614964, ""gamma"": 59.999988325472714, ""volume"": 98.26878640409265}, ""properties"": {}, ""sites"": [{""species"": [{""element"": ""K"", ""occu"": 1}], ""abc"": [-0.0, -0.0, 0.0], ""properties"": {""magmom"": -0.0}, ""label"": ""K"", ""xyz"": [0.0, 0.0, 0.0]}, {""species"": [{""element"": ""Lu"", ""occu"": 1}], ""abc"": [0.5, 0.5, 0.5], ""properties"": {""magmom"": 0.0}, ""label"": ""Lu"", ""xyz"": [-3.9432939499999993, -2.2766612349999997, -3.64868913]}, {""species"": [{""element"": ""S"", ""occu"": 1}], ""abc"": [0.76704023, 0.76704023, 0.6988803100000001], ""properties"": {""magmom"": -0.0}, ""label"": ""S"", ""xyz"": [-5.914942879266194, -3.4149929736202367, -5.099993980536062]}, {""species"": [{""element"": ""S"", ""occu"": 1}], ""abc"": [0.23295977, 0.23295977, 0.30111969], ""properties"": {""magmom"": -0.0}, ""label"": ""S"", ""xyz"": [-1.971645020733804, -1.138329496379762, -2.1973842794639395]}]}",KLuS2,166,2.4627,0.0,0.0084313826213089,0.0138520173674051,0.0057155714919088
mp-1014244,"{""@module"": ""pymatgen.core.structure"", ""@class"": ""Structure"", ""charge"": 0, ""lattice"": {""matrix"": [[2.84165008, -1.64062857, -0.0], [-1e-08, 3.28125511, 0.0], [-0.0, 0.0, 5.28227338]], ""pbc"": [true, true, true], ""a"": 3.281255442946229, ""b"": 3.28125511, ""c"": 5.28227338, ""alpha"": 90.0, ""beta"": 90.0, ""gamma"": 120.00001728333883, ""volume"": 49.25286162103453}, ""properties"": {}, ""sites"": [{""species"": [{""element"": ""Zr"", ""occu"": 1}], ""abc"": [-0.0, 0.0, 0.0021306800000000002], ""properties"": {""magmom"": -0.0}, ""label"": ""Zr"", ""xyz"": [0.0, 0.0, 0.011254834245298401]}, {""species"": [{""element"": ""Zn"", ""occu"": 1}], ""abc"": [0.666667, 0.333333, 0.45002818], ""properties"": {""magmom"": -0.0}, ""label"": ""Zn"", ""xyz"": [1.89443433055003, -2.317294560016947e-06, 2.3771718754638487]}, {""species"": [{""element"": ""N"", ""occu"": 1}], ""abc"": [0.333333, 0.666667, 0.26048738], ""properties"": {""magmom"": -0.0}, ""label"": ""N"", ""xyz"": [0.94721573944997, 1.64062885729456, 1.3759655531999444]}, {""species"": [{""element"": ""N"", ""occu"": 1}], ""abc"": [0.666667, 0.333333, 0.81732377], ""properties"": {""magmom"": 0.0}, ""label"": ""N"", ""xyz"": [1.89443433055003, -2.317294560016947e-06, 4.317327593112243]}]}",ZrZnN2,156,2.0468999999999995,0.0,0.019032604279516,0.035781126682098,0.0120261399055462
mp-1079483,"{""@module"": ""pymatgen.core.structure"", ""@class"": ""Structure"", ""charge"": 0, ""lattice"": {""matrix"": [[4.73910363, -2.46899043, 0.00202613], [4.73910381, 2.4689901, 0.00202558], [3.451059309999999, 3.299999999999998e-07, 4.07985443]], ""pbc"": [true, true, true], ""a"": 5.343689836107026, ""b"": 5.343689843060585, ""c"": 5.3436899733356915, ""alpha"": 55.03745503583339, ""beta"": 55.03745500036008, ""gamma"": 55.03744902827715, ""volume"": 95.44060604754222}, ""properties"": {}, ""sites"": [{""species"": [{""element"": ""Li"", ""occu"": 1}], ""abc"": [0.5, 0.5, 0.5], ""properties"": {""magmom"": -0.0}, ""label"": ""Li"", ""xyz"": [6.464633374999998, 1.1460419303821728e-16, 2.04195307]}, {""species"": [{""element"": ""Au"", ""occu"": 1}], ""abc"": [0.0, 0.0, -0.0], ""properties"": {""magmom"": -0.0}, ""label"": ""Au"", ""xyz"": [0.0, 0.0, 0.0]}, {""species"": [{""element"": ""F"", ""occu"": 1}], ""abc"": [0.90235463, 0.60949167, 0.24150864], ""properties"": {""magmom"": 0.0}, ""label"": ""F"", ""xyz"": [7.998257038558008, -0.7230759669758724, 0.9883829567106758]}, {""species"": [{""element"": ""F"", ""occu"": 1}], ""abc"": [0.60949167, 0.24150864, 0.90235463], ""properties"": {""magmom"": 0.0}, ""label"": ""F"", ""xyz"": [7.147058048506784, -0.9085463613932261, 3.68319963906486]}, {""species"": [{""element"": ""F"", ""occu"": 1}], ""abc"": [0.24150864, 0.90235463, 0.60949167], ""properties"": {""magmom"": 0.0}, ""label"": ""F"", ""xyz"": [7.524278639625451, 1.6316223283690994, 2.488954409289797]}, {""species"": [{""element"": ""F"", ""occu"": 1}], ""abc"": [0.09764537, 0.39050833, 0.7584913600000001], ""properties"": {""magmom"": 0.0}, ""label"": ""F"", ""xyz"": [4.931009711441991, 0.7230759669758728, 3.0955231832893246]}, {""species"": [{""element"": ""F"", ""occu"": 1}], ""abc"": [0.39050833, 0.7584913600000001, 0.09764537], ""properties"": {""magmom"": 0.0}, ""label"": ""F"", ""xyz"": [5.7822087014932135, 0.9085463613932264, 0.40070650093514076]}, {""species"": [{""element"": ""F"", ""occu"": 1}], ""abc"": [0.7584913600000001, 0.09764537, 0.39050833], ""properties"": {""magmom"": 0.0}, ""label"": ""F"", ""xyz"": [5.404988110374548, -1.631622328369099, 1.5949517307102035]}]}",LiAuF6,148,1.9146,0.0,0.0125745016417786,0.0302684140314832,0.0074156679717475
mp-553082,"{""@module"": ""pymatgen.core.structure"", ""@class"": ""Structure"", ""charge"": 0, ""lattice"": {""matrix"": [[3.972849, 0.0, 0.0], [0.0, 3.972849, 0.0], [0.0, 0.0, 9.161927]], ""pbc"": [true, true, true], ""a"": 3.972849, ""b"": 3.972849, ""c"": 9.161927, ""alpha"": 90.0, ""beta"": 90.0, ""gamma"": 90.0, ""volume"": 144.60754212022087}, ""properties"": {}, ""sites"": [{""species"": [{""element"": ""Pr"", ""occu"": 1}], ""abc"": [0.0, 0.0, 0.0], ""properties"": {""magmom"": -0.0}, ""label"": ""Pr"", ""xyz"": [0.0, 0.0, 0.0]}, {""species"": [{""element"": ""Bi"", ""occu"": 1}], ""abc"": [0.5, 0.5, 0.717515999999999], ""properties"": {""magmom"": -0.0}, ""label"": ""Bi"", ""xyz"": [1.9864245, 1.9864245, 6.573829213331991]}, {""species"": [{""element"": ""Bi"", ""occu"": 1}], ""abc"": [0.5, 0.5, 0.282484], ""properties"": {""magmom"": -0.0}, ""label"": ""Bi"", ""xyz"": [1.9864245, 1.9864245, 2.5880977866680004]}, {""species"": [{""element"": ""Cl"", ""occu"": 1}], ""abc"": [0.0, 0.0, 0.5], ""properties"": {""magmom"": 0.0}, ""label"": ""Cl"", ""xyz"": [0.0, 0.0, 4.5809635]}, {""species"": [{""element"": ""O"", ""occu"": 1}], ""abc"": [0.5, 0.0, 0.163237], ""properties"": {""magmom"": 0.0}, ""label"": ""O"", ""xyz"": [1.9864245, 0.0, 1.495565477699]}, {""species"": [{""element"": ""O"", ""occu"": 1}], ""abc"": [0.0, 0.5, 0.163237], ""properties"": {""magmom"": 0.0}, ""label"": ""O"", ""xyz"": [0.0, 1.9864245, 1.495565477699]}, {""species"": [{""element"": ""O"", ""occu"": 1}], ""abc"": [0.0, 0.5, 0.836762999999999], ""properties"": {""magmom"": 0.0}, ""label"": ""O"", ""xyz"": [0.0, 1.9864245, 7.666361522300991]}, {""species"": [{""element"": ""O"", ""occu"": 1}], ""abc"": [0.5, 0.0, 0.836762999999999], ""properties"": {""magmom"": 0.0}, ""label"": ""O"", ""xyz"": [1.9864245, 0.0, 7.666361522300991]}]}",PrBi2ClO4,123,1.2172,0.0,0.0133183893442264,0.0547295638050974,0.0074150349696819