id,structure_json,formula,spacegroup,bandgap,energy_above_hull,k_1064,k_755,k_1500
mp-8756,"{""@module"": ""pymatgen.core.structure"", ""@class"": ""Structure"", ""charge"": 0, ""lattice"": {""matrix"": [[4.50147408, 0.0, 0.0], [-0.0, 4.50147408, 0.0], [0.0, -0.0, 7.20714494]], ""pbc"": [true, true, true], ""a"": 4.50147408, ""b"": 4.50147408, ""c"": 7.20714494, ""alpha"": 90.0, ""beta"": 90.0, ""gamma"": 90.0, ""volume"": 146.04031586940903}, ""properties"": {}, ""sites"": [{""species"": [{""element"": ""K"", ""occu"": 1}], ""abc"": [0.25, 0.25, 0.66235907], ""properties"": {""magmom"": 0.0}, ""label"": ""K"", ""xyz"": [1.12536852, 1.12536852, 4.773717819813606]}, {""species"": [{""element"": ""K"", ""occu"": 1}], ""abc"": [0.75, 0.75, 0.33764093], ""properties"": {""magmom"": 0.0}, ""label"": ""K"", ""xyz"": [3.37610556, 3.37610556, 2.433427120186394]}, {""species"": [{""element"": ""Li"", ""occu"": 1}], ""abc"": [0.25, 0.75, -0.0], ""properties"": {""magmom"": -0.0}, ""label"": ""Li"", ""xyz"": [1.12536852, 3.37610556, 0.0]}, {""species"": [{""element"": ""Li"", ""occu"": 1}], ""abc"": [0.75, 0.25, -0.0], ""properties"": {""magmom"": -0.0}, ""label"": ""Li"", ""xyz"": [3.37610556, 1.12536852, 0.0]}, {""species"": [{""element"": ""Se"", ""occu"": 1}], ""abc"": [0.25, 0.25, 0.19201154], ""properties"": {""magmom"": -0.0}, ""label"": ""Se"", ""xyz"": [1.12536852, 1.12536852, 1.3838549989326077]}, {""species"": [{""element"": ""Se"", ""occu"": 1}], ""abc"": [0.75, 0.75, 0.80798846], ""properties"": {""magmom"": -0.0}, ""label"": ""Se"", ""xyz"": [3.37610556, 3.37610556, 5.823289941067393]}]}",KLiSe,129,2.5385,0.0,0.0073026679847093,0.0120046428196294,0.0049749936204382
mp-2352,"{""@module"": ""pymatgen.core.structure"", ""@class"": ""Structure"", ""charge"": 0, ""lattice"": {""matrix"": [[3.35885194, 0.0, 1.93923424], [1.11961665, 3.16675563, 1.93923424], [-0.0, -0.0, 3.87846748]], ""pbc"": [true, true, true], ""a"": 3.878468227590648, ""b"": 3.8784677516620265, ""c"": 3.87846748, ""alpha"": 59.99999378795223, ""beta"": 59.99999784718252, ""gamma"": 60.00000430484028, ""volume"": 41.253952671138684}, ""properties"": {}, ""sites"": [{""species"": [{""element"": ""Na"", ""occu"": 1}], ""abc"": [0.75, 0.75, 0.75], ""properties"": {""magmom"": 0.0}, ""label"": ""Na"", ""xyz"": [3.3588514425, 2.3750667224999997, 5.81770197]}, {""species"": [{""element"": ""Na"", ""occu"": 1}], ""abc"": [0.25, 0.25, 0.25], ""properties"": {""magmom"": 0.0}, ""label"": ""Na"", ""xyz"": [1.1196171475, 0.7916889075, 1.93923399]}, {""species"": [{""element"": ""O"", ""occu"": 1}], ""abc"": [-0.0, -0.0, -0.0], ""properties"": {""magmom"": -0.0}, ""label"": ""O"", ""xyz"": [0.0, 0.0, 0.0]}]}",Na2O,225,1.8839,0.0,0.011222197131812,0.0325550763769324,0.0068692344792584
mp-31166,"{""@module"": ""pymatgen.core.structure"", ""@class"": ""Structure"", ""charge"": 0, ""lattice"": {""matrix"": [[7.58345328, -2.00615684, 0.00044107], [7.58345328, 2.00615684, 0.00044107], [7.05253636, -0.0, 3.43440796]], ""pbc"": [true, true, true], ""a"": 7.8443246434071225, ""b"": 7.8443246434071225, ""c"": 7.844324518072504, ""alpha"": 29.635625866075195, ""beta"": 29.635625866075195, ""gamma"": 29.635620372533737, ""volume"": 104.48691404445152}, ""properties"": {}, ""sites"": [{""species"": [{""element"": ""Dy"", ""occu"": 1}], ""abc"": [0.0, 0.0, 0.0], ""properties"": {""magmom"": 0.0}, ""label"": ""Dy"", ""xyz"": [0.0, 0.0, 0.0]}, {""species"": [{""element"": ""Tl"", ""occu"": 1}], ""abc"": [0.5, 0.5, 0.5], ""properties"": {""magmom"": 0.0}, ""label"": ""Tl"", ""xyz"": [11.10972146, 0.0, 1.71764505]}, {""species"": [{""element"": ""S"", ""occu"": 1}], ""abc"": [0.73264399, 0.73264399, 0.73264399], ""properties"": {""magmom"": -0.0}, ""label"": ""S"", ""xyz"": [16.27894131648605, 0.0, 2.516844645671499]}, {""species"": [{""element"": ""S"", ""occu"": 1}], ""abc"": [0.26735601000000003, 0.26735601000000003, 0.26735601000000003], ""properties"": {""magmom"": -0.0}, ""label"": ""S"", ""xyz"": [5.940501603513949, 0.0, 0.9184454543285011]}]}",DyTlS2,166,1.5947999999999998,0.0,0.0147921937843929,0.0246504201952596,0.0098769516101586
mp-1079627,"{""@module"": ""pymatgen.core.structure"", ""@class"": ""Structure"", ""charge"": 0, ""lattice"": {""matrix"": [[2.79200608, -3.23293171, 0.00285828], [2.79200608, 3.23293171, 0.00285828], [-0.95574252, -0.0, 4.16337672]], ""pbc"": [true, true, true], ""a"": 4.271668709303783, ""b"": 4.271668709303783, ""c"": 4.271668231168463, ""alpha"": 98.37124327307878, ""beta"": 98.37124327307878, ""gamma"": 98.37125023419797, ""volume"": 75.17797905034257}, ""properties"": {}, ""sites"": [{""species"": [{""element"": ""Pr"", ""occu"": 1}], ""abc"": [0.5, 0.5, 0.5], ""properties"": {""magmom"": -0.0}, ""label"": ""Pr"", ""xyz"": [2.31413482, 0.0, 2.0845466399999997]}, {""species"": [{""element"": ""Al"", ""occu"": 1}], ""abc"": [-0.0, 0.0, 0.0], ""properties"": {""magmom"": 0.0}, ""label"": ""Al"", ""xyz"": [0.0, 0.0, 0.0]}, {""species"": [{""element"": ""H"", ""occu"": 1}], ""abc"": [0.29356628, 0.9384671, 0.29356628], ""properties"": {""magmom"": -0.0}, ""label"": ""H"", ""xyz"": [3.1592709114887247, 2.0849203107830023, 1.225748512298388]}, {""species"": [{""element"": ""H"", ""occu"": 1}], ""abc"": [0.29356628, 0.29356628, 0.9384671], ""properties"": {""magmom"": -0.0}, ""label"": ""H"", ""xyz"": [0.7423447661948729, 0.0, 3.9088702658795085]}, {""species"": [{""element"": ""H"", ""occu"": 1}], ""abc"": [0.9384671, 0.29356628, 0.29356628], ""properties"": {""magmom"": -0.0}, ""label"": ""H"", ""xyz"": [3.1592709114887247, -2.0849203107830023, 1.225748512298388]}, {""species"": [{""element"": ""H"", ""occu"": 1}], ""abc"": [0.70643372, 0.061532899999999, 0.70643372], ""properties"": {""magmom"": -0.0}, ""label"": ""H"", ""xyz"": [1.4689987285112727, -2.0849203107830054, 2.943344767701612]}, {""species"": [{""element"": ""H"", ""occu"": 1}], ""abc"": [0.70643372, 0.70643372, 0.061532899999999], ""properties"": {""magmom"": -0.0}, ""label"": ""H"", ""xyz"": [3.885924873805129, 0.0, 0.260223014120487]}, {""species"": [{""element"": ""H"", ""occu"": 1}], ""abc"": [0.061532899999999, 0.70643372, 0.70643372], ""properties"": {""magmom"": -0.0}, ""label"": ""H"", ""xyz"": [1.4689987285112727, 2.0849203107830054, 2.943344767701612]}]}",PrAlH6,166,2.0306,0.0,0.0124145435956409,0.020947476942029,0.0081705738320963
mp-2400,"{""@module"": ""pymatgen.core.structure"", ""@class"": ""Structure"", ""charge"": 0, ""lattice"": {""matrix"": [[4.4515464, 0.0, 0.0], [-2.2257732, 3.85515416, 0.0], [-0.0, 0.0, 10.17580278]], ""pbc"": [true, true, true], ""a"": 4.4515464, ""b"": 4.451548038065359, ""c"": 10.17580278, ""alpha"": 90.0, ""beta"": 90.0, ""gamma"": 119.99998782743393, ""volume"": 174.63099763463234}, ""properties"": {}, ""sites"": [{""species"": [{""element"": ""Na"", ""occu"": 1}], ""abc"": [0.0, -0.0, 0.0], ""properties"": {""magmom"": 0.0}, ""label"": ""Na"", ""xyz"": [0.0, 0.0, 0.0]}, {""species"": [{""element"": ""Na"", ""occu"": 1}], ""abc"": [0.0, -0.0, 0.5], ""properties"": {""magmom"": 0.0}, ""label"": ""Na"", ""xyz"": [0.0, 0.0, 5.08790139]}, {""species"": [{""element"": ""Na"", ""occu"": 1}], ""abc"": [0.333333, 0.666667, 0.25], ""properties"": {""magmom"": 0.0}, ""label"": ""Na"", ""xyz"": [-2.2257732001929043e-06, 2.57010405838472, 2.543950695]}, {""species"": [{""element"": ""Na"", ""occu"": 1}], ""abc"": [0.666667, 0.333333, 0.75], ""properties"": {""magmom"": 0.0}, ""label"": ""Na"", ""xyz"": [2.2257754257732003, 1.28505010161528, 7.631852085]}, {""species"": [{""element"": ""S"", ""occu"": 1}], ""abc"": [0.333333, 0.666667, 0.6441891200000001], ""properties"": {""magmom"": 0.0}, ""label"": ""S"", ""xyz"": [-2.2257732001929043e-06, 2.57010405838472, 6.555141438141754]}, {""species"": [{""element"": ""S"", ""occu"": 1}], ""abc"": [0.666667, 0.333333, 0.14418912], ""properties"": {""magmom"": 0.0}, ""label"": ""S"", ""xyz"": [2.2257754257732003, 1.28505010161528, 1.4672400481417536]}, {""species"": [{""element"": ""S"", ""occu"": 1}], ""abc"": [0.666667, 0.333333, 0.35581088], ""properties"": {""magmom"": 0.0}, ""label"": ""S"", ""xyz"": [2.2257754257732003, 1.28505010161528, 3.6206613418582463]}, {""species"": [{""element"": ""S"", ""occu"": 1}], ""abc"": [0.333333, 0.666667, 0.85581088], ""properties"": {""magmom"": 0.0}, ""label"": ""S"", ""xyz"": [-2.2257732001929043e-06, 2.57010405838472, 8.708562731858247]}]}",NaS,194,1.2433999999999998,0.0,0.0428414713139744,0.169102865759856,0.0125575694030101
mp-559798,"{""@module"": ""pymatgen.core.structure"", ""@class"": ""Structure"", ""charge"": 0, ""lattice"": {""matrix"": [[3.0795406, 0.0, 0.0], [0.0, 4.6328701500000005, 8.03e-06], [0.0, 8.03e-06, 4.6328701500000005]], ""pbc"": [true, true, true], ""a"": 3.0795406, ""b"": 4.632870150006959, ""c"": 4.632870150006959, ""alpha"": 89.99980138225567, ""beta"": 90.0, ""gamma"": 90.0, ""volume"": 66.09767602083657}, ""properties"": {}, ""sites"": [{""species"": [{""element"": ""Ni"", ""occu"": 1}], ""abc"": [0.5, 0.5, 0.5], ""properties"": {""magmom"": 1.779}, ""label"": ""Ni"", ""xyz"": [1.5397703, 2.3164390900000003, 2.3164390900000003]}, {""species"": [{""element"": ""Ni"", ""occu"": 1}], ""abc"": [-0.0, -0.0, -0.0], ""properties"": {""magmom"": 1.779}, ""label"": ""Ni"", ""xyz"": [0.0, 0.0, 0.0]}, {""species"": [{""element"": ""F"", ""occu"": 1}], ""abc"": [0.0, 0.69631822, 0.69631822], ""properties"": {""magmom"": 0.1}, ""label"": ""F"", ""xyz"": [0.0, 3.22595748777444, 3.22595748777444]}, {""species"": [{""element"": ""F"", ""occu"": 1}], ""abc"": [0.5, 0.80368178, 0.19631822000000002], ""properties"": {""magmom"": 0.1}, ""label"": ""F"", ""xyz"": [1.5397703, 3.723354905096174, 0.9095232749038266]}, {""species"": [{""element"": ""F"", ""occu"": 1}], ""abc"": [0.0, 0.30368178, 0.30368178], ""properties"": {""magmom"": 0.1}, ""label"": ""F"", ""xyz"": [0.0, 1.4069206922255606, 1.4069206922255606]}, {""species"": [{""element"": ""F"", ""occu"": 1}], ""abc"": [0.5, 0.19631822000000002, 0.80368178], ""properties"": {""magmom"": 0.1}, ""label"": ""F"", ""xyz"": [1.5397703, 0.9095232749038266, 3.723354905096174]}]}",NiF2,136,0.3705999999999996,0.0,0.3765621690294944,0.6292241421008715,0.0901626278764824
mp-10784,"{""@module"": ""pymatgen.core.structure"", ""@class"": ""Structure"", ""charge"": 0, ""lattice"": {""matrix"": [[8.02418226, -2.09167241, -4.914e-05], [8.02418226, 2.09167241, -4.914e-05], [7.47896684, -0.0, 3.58157242]], ""pbc"": [true, true, true], ""a"": 8.292321412901735, ""b"": 8.292321412901735, ""c"": 8.292322111056965, ""alpha"": 29.22044578883219, ""beta"": 29.22044578883219, ""gamma"": 29.220453497368943, ""volume"": 120.22747854449669}, ""properties"": {}, ""sites"": [{""species"": [{""element"": ""Rb"", ""occu"": 1}], ""abc"": [0.0, 0.0, -0.0], ""properties"": {""magmom"": -0.0}, ""label"": ""Rb"", ""xyz"": [0.0, 0.0, 0.0]}, {""species"": [{""element"": ""Er"", ""occu"": 1}], ""abc"": [0.5, 0.5, 0.5], ""properties"": {""magmom"": -0.0}, ""label"": ""Er"", ""xyz"": [11.763665679999999, 0.0, 1.79073707]}, {""species"": [{""element"": ""Se"", ""occu"": 1}], ""abc"": [0.23139603, 0.23139603, 0.23139603], ""properties"": {""magmom"": 0.0}, ""label"": ""Se"", ""xyz"": [5.4441310731985, 0.0, 0.8287388975436643]}, {""species"": [{""element"": ""Se"", ""occu"": 1}], ""abc"": [0.76860397, 0.76860397, 0.76860397], ""properties"": {""magmom"": 0.0}, ""label"": ""Se"", ""xyz"": [18.0832002868015, 0.0, 2.752735242456336]}]}",RbErSe2,166,2.0066,0.0,0.0136489787192431,0.023885024073177,0.0086379590257759
mp-22313,"{""@module"": ""pymatgen.core.structure"", ""@class"": ""Structure"", ""charge"": 0.0, ""lattice"": {""matrix"": [[-1.56999141, 2.27707369, 4.71579887], [1.56999141, -2.27707369, 4.71579887], [1.56999141, 2.27707369, -4.71579887]], ""pbc"": [true, true, true], ""a"": 5.4670555694502765, ""b"": 5.4670555694502765, ""c"": 5.4670555694502765, ""alpha"": 146.62241929805657, ""beta"": 130.77133306035267, ""gamma"": 60.7838973064774, ""volume"": 67.43566226953892}, ""properties"": {}, ""sites"": [{""species"": [{""element"": ""Na"", ""occu"": 1}], ""abc"": [0.67650375, 0.67650375, -0.0], ""properties"": {""magmom"": -0.0}, ""label"": ""Na"", ""xyz"": [0.0, 0.0, 6.3805112396015256]}, {""species"": [{""element"": ""Na"", ""occu"": 1}], ""abc"": [0.32349625, 0.32349625, 0.0], ""properties"": {""magmom"": -0.0}, ""label"": ""Na"", ""xyz"": [0.0, 0.0, 3.0510865003984753]}, {""species"": [{""element"": ""Pt"", ""occu"": 1}], ""abc"": [-0.0, -0.0, -0.0], ""properties"": {""magmom"": -0.0}, ""label"": ""Pt"", ""xyz"": [0.0, 0.0, 0.0]}, {""species"": [{""element"": ""O"", ""occu"": 1}], ""abc"": [0.85952952, 0.35952952, 0.5], ""properties"": {""magmom"": 0.0}, ""label"": ""O"", ""xyz"": [0.0, 2.27707369, 3.390937808295286]}, {""species"": [{""element"": ""O"", ""occu"": 1}], ""abc"": [0.14047048, 0.6404704800000001, 0.5], ""properties"": {""magmom"": 0.0}, ""label"": ""O"", ""xyz"": [1.5699914100000003, -2.220446049250313e-16, 1.3248610617047158]}]}",Na2PtO2,71,1.3878,0.0,0.0129992548071992,0.0326257655042721,0.0077101993748818
mp-753721,"{""@module"": ""pymatgen.core.structure"", ""@class"": ""Structure"", ""charge"": 0, ""lattice"": {""matrix"": [[3.86074177, -0.0, -0.0], [-1.93037139, 1.11450061, 6.41973403], [1.93037139, -3.34349879, -0.0]], ""pbc"": [true, true, true], ""a"": 3.86074177, ""b"": 6.7956920419454665, ""c"": 3.86074058466274, ""alpha"": 106.50255960540821, ""beta"": 59.99998118983203, ""gamma"": 106.5025551059665, ""volume"": 82.86840125903913}, ""properties"": {}, ""sites"": [{""species"": [{""element"": ""Gd"", ""occu"": 1}], ""abc"": [0.24153413, 0.72460039, 0.24153413], ""properties"": {""magmom"": 6.874}, ""label"": ""Gd"", ""xyz"": [3.6167933088471216e-06, -1.4947374649132428e-06, 4.6517417818342714]}, {""species"": [{""element"": ""Gd"", ""occu"": 1}], ""abc"": [0.75846587, 0.27539961, 0.75846587], ""properties"": {""magmom"": 6.874}, ""label"": ""Gd"", ""xyz"": [3.8607381532066913, -2.228996685262535, 1.7679922481657284]}, {""species"": [{""element"": ""O"", ""occu"": 1}], ""abc"": [0.12183246, 0.36549539000000003, 0.12183246], ""properties"": {""magmom"": -0.023}, ""label"": ""O"", ""xyz"": [3.7183882815594593e-06, -1.8474855354999598e-06, 2.3463831929911216]}, {""species"": [{""element"": ""O"", ""occu"": 1}], ""abc"": [0.87816754, 0.63450461, 0.87816754], ""properties"": {""magmom"": -0.023}, ""label"": ""O"", ""xyz"": [3.860738051611719, -2.2289963325144644, 4.073350837008879]}, {""species"": [{""element"": ""F"", ""occu"": 1}], ""abc"": [0.36994957, 0.10984972, 0.36994957], ""properties"": {""magmom"": -0.003}, ""label"": ""F"", ""xyz"": [1.9303690666758304, -1.1144983597076912, 0.7052059856699716]}, {""species"": [{""element"": ""F"", ""occu"": 1}], ""abc"": [0.63005043, 0.8901502800000001, 0.63005043], ""properties"": {""magmom"": -0.003}, ""label"": ""F"", ""xyz"": [1.93037270332417, -1.114499820292309, 5.714528044330029]}]}",GdOF,166,3.3029,0.0,0.0028053499808574,0.0041879156471535,0.0019253425666284
mp-1029258,"{""@module"": ""pymatgen.core.structure"", ""@class"": ""Structure"", ""charge"": 0, ""lattice"": {""matrix"": [[3.44624907, 3.039999999999999e-06, 3.049999999999998e-06], [-1.7231230100000001, 2.98453617, 0.0], [5.08e-06, 3.049999999999998e-06, 5.99027902]], ""pbc"": [true, true, true], ""a"": 3.4462490700026907, ""b"": 3.446245646733519, ""c"": 5.990279020002931, ""alpha"": 89.9999990303489, ""beta"": 89.9999007029037, ""gamma"": 119.99995304122172, ""volume"": 61.61277667789498}, ""properties"": {}, ""sites"": [{""species"": [{""element"": ""Ca"", ""occu"": 1}], ""abc"": [0.0, 0.0, 0.5], ""properties"": {""magmom"": 0.0}, ""label"": ""Ca"", ""xyz"": [2.54e-06, 1.524999999999999e-06, 2.99513951]}, {""species"": [{""element"": ""Zn"", ""occu"": 1}], ""abc"": [0.666667999999999, 0.333333999999999, 0.13795958], ""properties"": {""magmom"": 0.0}, ""label"": ""Zn"", ""xyz"": [1.7231291904180845, 0.9948498271382161, 0.8264184110194116]}, {""species"": [{""element"": ""Zn"", ""occu"": 1}], ""abc"": [0.333331999999999, 0.666666, 0.86204042], ""properties"": {""magmom"": 0.0}, ""label"": ""Zn"", ""xyz"": [1.949581910042298e-06, 1.989692432861781, 5.163863658980589]}, {""species"": [{""element"": ""N"", ""occu"": 1}], ""abc"": [0.666663999999999, 0.333331999999999, 0.76156028], ""properties"": {""magmom"": -0.0}, ""label"": ""N"", ""xyz"": [1.7231220195593808, 0.9948457600358511, 4.561960601074525]}, {""species"": [{""element"": ""N"", ""occu"": 1}], ""abc"": [0.333335999999999, 0.666667999999999, 0.23843972], ""properties"": {""magmom"": -0.0}, ""label"": ""N"", ""xyz"": [9.120440615727034e-06, 1.9896964999641433, 1.4283214689254742]}]}",Ca(ZnN)2,164,0.6406000000000005,0.0,0.2402501246466213,0.3413572038784948,0.1882745684531564
mp-9195,"{""@module"": ""pymatgen.core.structure"", ""@class"": ""Structure"", ""charge"": 0, ""lattice"": {""matrix"": [[4.263533, 0.0, 0.0], [0.0, 4.263533, 0.0], [0.0, 0.0, 9.246547]], ""pbc"": [true, true, true], ""a"": 4.263533, ""b"": 4.263533, ""c"": 9.246547, ""alpha"": 90.0, ""beta"": 90.0, ""gamma"": 90.0, ""volume"": 168.0810835441171}, ""properties"": {}, ""sites"": [{""species"": [{""element"": ""Ba"", ""occu"": 1}], ""abc"": [0.0, 0.5, 0.672423], ""properties"": {""magmom"": -0.0}, ""label"": ""Ba"", ""xyz"": [0.0, 2.1317665, 6.217590873381]}, {""species"": [{""element"": ""Ba"", ""occu"": 1}], ""abc"": [0.5, 0.0, 0.327577], ""properties"": {""magmom"": -0.0}, ""label"": ""Ba"", ""xyz"": [2.1317665, 0.0, 3.028956126619]}, {""species"": [{""element"": ""Cu"", ""occu"": 1}], ""abc"": [0.5, 0.5, 0.0], ""properties"": {""magmom"": 0.0}, ""label"": ""Cu"", ""xyz"": [2.1317665, 2.1317665, 0.0]}, {""species"": [{""element"": ""Cu"", ""occu"": 1}], ""abc"": [0.0, 0.0, 0.0], ""properties"": {""magmom"": 0.0}, ""label"": ""Cu"", ""xyz"": [0.0, 0.0, 0.0]}, {""species"": [{""element"": ""Se"", ""occu"": 1}], ""abc"": [0.0, 0.5, 0.151154999999999], ""properties"": {""magmom"": 0.0}, ""label"": ""Se"", ""xyz"": [0.0, 2.1317665, 1.3976618117849908]}, {""species"": [{""element"": ""Se"", ""occu"": 1}], ""abc"": [0.5, 0.0, 0.848845], ""properties"": {""magmom"": 0.0}, ""label"": ""Se"", ""xyz"": [2.1317665, 0.0, 7.848885188214999]}, {""species"": [{""element"": ""F"", ""occu"": 1}], ""abc"": [0.0, 0.0, 0.5], ""properties"": {""magmom"": 0.0}, ""label"": ""F"", ""xyz"": [0.0, 0.0, 4.6232735]}, {""species"": [{""element"": ""F"", ""occu"": 1}], ""abc"": [0.5, 0.5, 0.5], ""properties"": {""magmom"": 0.0}, ""label"": ""F"", ""xyz"": [2.1317665, 2.1317665, 4.6232735]}]}",BaCuSeF,129,1.4095999999999995,0.0,0.0283965768638416,0.1340377598772395,0.0153219964099655
mp-9437,"{""@module"": ""pymatgen.core.structure"", ""@class"": ""Structure"", ""charge"": 0, ""lattice"": {""matrix"": [[3.63831462, -0.0, 2.10058203], [1.21277086, 3.430236, 2.10058203], [-0.0, -0.0, 4.20116406]], ""pbc"": [true, true, true], ""a"": 4.201163902880328, ""b"": 4.201163772018423, ""c"": 4.20116406, ""alpha"": 59.99999773244879, ""beta"": 59.99999876284833, ""gamma"": 60.00000741872217, ""volume"": 52.43169450533423}, ""properties"": {}, ""sites"": [{""species"": [{""element"": ""Nb"", ""occu"": 1}], ""abc"": [0.0, -0.0, 0.0], ""properties"": {""magmom"": 0.0}, ""label"": ""Nb"", ""xyz"": [0.0, 0.0, 0.0]}, {""species"": [{""element"": ""Fe"", ""occu"": 1}], ""abc"": [0.25, 0.25, 0.25], ""properties"": {""magmom"": -0.0}, ""label"": ""Fe"", ""xyz"": [1.21277137, 0.857559, 2.10058203]}, {""species"": [{""element"": ""Sb"", ""occu"": 1}], ""abc"": [0.5, 0.5, 0.5], ""properties"": {""magmom"": 0.0}, ""label"": ""Sb"", ""xyz"": [2.42554274, 1.715118, 4.20116406]}]}",NbFeSb,216,0.5137999999999998,0.0,0.2377884757043424,2.2310488304008964,0.1022094244639093