id,structure_json,formula,spacegroup,bandgap,energy_above_hull,k_1064,k_755,k_1500
mp-29138,"{""@module"": ""pymatgen.core.structure"", ""@class"": ""Structure"", ""charge"": 0, ""lattice"": {""matrix"": [[3.6917726, -0.0, 0.0], [0.0, 7.76354793, 0.0], [-0.0, 0.0, 7.76354793]], ""pbc"": [true, true, true], ""a"": 3.6917726, ""b"": 7.76354793, ""c"": 7.76354793, ""alpha"": 90.0, ""beta"": 90.0, ""gamma"": 90.0, ""volume"": 222.51301548888836}, ""properties"": {}, ""sites"": [{""species"": [{""element"": ""K"", ""occu"": 1}], ""abc"": [-0.0, 0.5, 0.5], ""properties"": {""magmom"": -0.0}, ""label"": ""K"", ""xyz"": [0.0, 3.881773965, 3.881773965]}, {""species"": [{""element"": ""K"", ""occu"": 1}], ""abc"": [-0.0, 0.0, 0.0], ""properties"": {""magmom"": -0.0}, ""label"": ""K"", ""xyz"": [0.0, 0.0, 0.0]}, {""species"": [{""element"": ""Au"", ""occu"": 1}], ""abc"": [-0.0, 0.0, 0.5], ""properties"": {""magmom"": -0.0}, ""label"": ""Au"", ""xyz"": [0.0, 0.0, 3.881773965]}, {""species"": [{""element"": ""Au"", ""occu"": 1}], ""abc"": [-0.0, 0.5, 0.0], ""properties"": {""magmom"": -0.0}, ""label"": ""Au"", ""xyz"": [0.0, 3.881773965, 0.0]}, {""species"": [{""element"": ""Se"", ""occu"": 1}], ""abc"": [0.5, 0.34718465, 0.15281535000000002], ""properties"": {""magmom"": 0.0}, ""label"": ""Se"", ""xyz"": [1.8458863, 2.695384670835274, 1.1863892941647256]}, {""species"": [{""element"": ""Se"", ""occu"": 1}], ""abc"": [0.5, 0.84718465, 0.34718465], ""properties"": {""magmom"": 0.0}, ""label"": ""Se"", ""xyz"": [1.8458863, 6.577158635835274, 2.695384670835274]}, {""species"": [{""element"": ""Se"", ""occu"": 1}], ""abc"": [0.5, 0.15281535000000002, 0.65281535], ""properties"": {""magmom"": 0.0}, ""label"": ""Se"", ""xyz"": [1.8458863, 1.1863892941647256, 5.068163259164725]}, {""species"": [{""element"": ""Se"", ""occu"": 1}], ""abc"": [0.5, 0.65281535, 0.84718465], ""properties"": {""magmom"": 0.0}, ""label"": ""Se"", ""xyz"": [1.8458863, 5.068163259164725, 6.577158635835274]}]}",KAuSe2,127,0.8910000000000002,0.0,0.1329713314275325,1.3492322711366704,0.0525528998969643
mp-1207186,"{""@module"": ""pymatgen.core.structure"", ""@class"": ""Structure"", ""charge"": 0, ""lattice"": {""matrix"": [[1.913429939999999, -3.31415796, 0.0], [1.913429939999999, 3.31415796, 0.0], [-0.0, -0.0, 3.90631106]], ""pbc"": [true, true, true], ""a"": 3.8268599555144114, ""b"": 3.8268599555144114, ""c"": 3.90631106, ""alpha"": 90.0, ""beta"": 90.0, ""gamma"": 120.00000130550724, ""volume"": 49.54303274532302}, ""properties"": {}, ""sites"": [{""species"": [{""element"": ""Dy"", ""occu"": 1}], ""abc"": [0.0, 0.0, 0.0], ""properties"": {""magmom"": 0.0}, ""label"": ""Dy"", ""xyz"": [0.0, 0.0, 0.0]}, {""species"": [{""element"": ""H"", ""occu"": 1}], ""abc"": [0.333333, 0.666667, -0.0], ""properties"": {""magmom"": 0.0}, ""label"": ""H"", ""xyz"": [1.913429939999999, 1.10472152943864, 0.0]}, {""species"": [{""element"": ""Se"", ""occu"": 1}], ""abc"": [0.666667, 0.333333, 0.5], ""properties"": {""magmom"": -0.0}, ""label"": ""Se"", ""xyz"": [1.913429939999999, -1.10472152943864, 1.95315553]}]}",DyHSe,187,1.4996,0.0,0.0186295538936217,0.0387733844312968,0.0115977294465144
mp-2176,"{""@module"": ""pymatgen.core.structure"", ""@class"": ""Structure"", ""charge"": 0, ""lattice"": {""matrix"": [[4.32281272, -0.00020256, 0.0], [-2.16123088, 3.74376758, -0.0], [-0.0, -0.0, 10.57750131]], ""pbc"": [true, true, true], ""a"": 4.322812724745816, ""b"": 4.32281327490844, ""c"": 10.57750131, ""alpha"": 90.0, ""beta"": 90.0, ""gamma"": 119.99999490438097, ""volume"": 171.17748428055455}, ""properties"": {}, ""sites"": [{""species"": [{""element"": ""Zn"", ""occu"": 1}], ""abc"": [0.66660313, 0.6673303700000001, 0.69339317], ""properties"": {""magmom"": -0.0}, ""label"": ""Zn"", ""xyz"": [1.439345486749988, 2.4981947772253923, 7.334367164020053]}, {""species"": [{""element"": ""Zn"", ""occu"": 1}], ""abc"": [0.00072723, 0.33339687, 0.36005917], ""properties"": {""magmom"": -0.0}, ""label"": ""Zn"", ""xyz"": [-0.7174039316449801, 1.248160245871766, 3.8085263423525126]}, {""species"": [{""element"": ""Zn"", ""occu"": 1}], ""abc"": [0.33266963, 0.99927277, 0.02672617], ""properties"": {""magmom"": -0.0}, ""label"": ""Zn"", ""xyz"": [-0.7215906599454445, 3.740977614342544, 0.2826960981862827]}, {""species"": [{""element"": ""Te"", ""occu"": 1}], ""abc"": [0.66744543, 0.66687124, 0.44327383000000004], ""properties"": {""magmom"": 0.0}, ""label"": ""Te"", ""xyz"": [1.4439788778379783, 2.4964757306000984, 4.688729517513718]}, {""species"": [{""element"": ""Te"", ""occu"": 1}], ""abc"": [0.33312876, 0.00057319, 0.77660683], ""properties"": {""magmom"": 0.0}, ""label"": ""Te"", ""xyz"": [1.43881444519772, 0.0020784115775546, 8.214559761679947]}, {""species"": [{""element"": ""Te"", ""occu"": 1}], ""abc"": [0.99942681, 0.33255457, 0.10994083], ""properties"": {""magmom"": 0.0}, ""label"": ""Te"", ""xyz"": [3.6016077210079014, 1.244804573852207, 1.1628992733474874]}]}",ZnTe,216,1.0861,0.0,0.2582303907256452,0.198296145880972,0.0611533651556364
mp-766,"{""@module"": ""pymatgen.core.structure"", ""@class"": ""Structure"", ""charge"": 0, ""lattice"": {""matrix"": [[3.00114582, 0.0, 0.0], [0.0, 5.43556299, 0.0], [0.0, 0.0, 6.20594752]], ""pbc"": [true, true, true], ""a"": 3.00114582, ""b"": 5.43556299, ""c"": 6.20594752, ""alpha"": 90.0, ""beta"": 90.0, ""gamma"": 90.0, ""volume"": 101.2371077110571}, ""properties"": {}, ""sites"": [{""species"": [{""element"": ""As"", ""occu"": 1}], ""abc"": [0.5, 0.32922482000000003, 0.86634677], ""properties"": {""magmom"": -0.0}, ""label"": ""As"", ""xyz"": [1.50057291, 1.789522246981412, 5.37650258874151]}, {""species"": [{""element"": ""As"", ""occu"": 1}], ""abc"": [0.5, 0.67077518, 0.13365323], ""properties"": {""magmom"": -0.0}, ""label"": ""As"", ""xyz"": [1.50057291, 3.6460407430185886, 0.8294449312584896]}, {""species"": [{""element"": ""As"", ""occu"": 1}], ""abc"": [0.0, 0.17077518, 0.36634677], ""properties"": {""magmom"": -0.0}, ""label"": ""As"", ""xyz"": [0.0, 0.9282592480185883, 2.2735288287415103]}, {""species"": [{""element"": ""As"", ""occu"": 1}], ""abc"": [-0.0, 0.82922482, 0.6336532300000001], ""properties"": {""magmom"": -0.0}, ""label"": ""As"", ""xyz"": [0.0, 4.507303741981412, 3.9324186912584898]}, {""species"": [{""element"": ""Ru"", ""occu"": 1}], ""abc"": [0.5, 0.5, 0.5], ""properties"": {""magmom"": 0.0}, ""label"": ""Ru"", ""xyz"": [1.50057291, 2.717781495, 3.10297376]}, {""species"": [{""element"": ""Ru"", ""occu"": 1}], ""abc"": [0.0, 0.0, 0.0], ""properties"": {""magmom"": 0.0}, ""label"": ""Ru"", ""xyz"": [0.0, 0.0, 0.0]}]}",As2Ru,58,0.5167999999999999,0.0,0.9778226278123172,1.414833534638234,0.2589245160137985
mp-4763,"{""@module"": ""pymatgen.core.structure"", ""@class"": ""Structure"", ""charge"": 0, ""lattice"": {""matrix"": [[4.88275804, 0.0, -2.24325069], [-1.03060029, 4.77275433, -2.24325069], [0.01325171, 0.01641867, 6.46448149]], ""pbc"": [true, true, true], ""a"": 5.373406715982899, ""b"": 5.373406229801289, ""c"": 6.46451592271959, ""alpha"": 114.55759759449543, ""beta"": 114.55759553146834, ""gamma"": 89.99999641590213, ""volume"": 151.00927439980956}, ""properties"": {}, ""sites"": [{""species"": [{""element"": ""Zn"", ""occu"": 1}], ""abc"": [-0.0, 0.0, 0.0], ""properties"": {""magmom"": 0.0}, ""label"": ""Zn"", ""xyz"": [0.0, 0.0, 0.0]}, {""species"": [{""element"": ""Zn"", ""occu"": 1}], ""abc"": [0.25, 0.75, 0.5], ""properties"": {""magmom"": 0.0}, ""label"": ""Zn"", ""xyz"": [0.4543651474999999, 3.5877750825, 0.9889900549999999]}, {""species"": [{""element"": ""Si"", ""occu"": 1}], ""abc"": [0.5, 0.5, 0.0], ""properties"": {""magmom"": -0.0}, ""label"": ""Si"", ""xyz"": [1.926078875, 2.386377165, -2.24325069]}, {""species"": [{""element"": ""Si"", ""occu"": 1}], ""abc"": [0.75, 0.25, 0.5], ""properties"": {""magmom"": -0.0}, ""label"": ""Si"", ""xyz"": [3.4110443124999996, 1.2013979175, 0.9889900549999999]}, {""species"": [{""element"": ""P"", ""occu"": 1}], ""abc"": [0.392301199999999, 0.375, 0.25], ""properties"": {""magmom"": 0.0}, ""label"": ""P"", ""xyz"": [1.532349657151643, 1.79388754125, -0.10512857383782581]}, {""species"": [{""element"": ""P"", ""occu"": 1}], ""abc"": [0.8576988, 0.875, 0.25], ""properties"": {""magmom"": 0.0}, ""label"": ""P"", ""xyz"": [3.2894733853483515, 4.18026470625, -2.270757406162172]}, {""species"": [{""element"": ""P"", ""occu"": 1}], ""abc"": [0.125, 0.6076988, 0.75], ""properties"": {""magmom"": 0.0}, ""label"": ""P"", ""xyz"": [-0.006011022012652044, 2.9127110815358037, 3.2047340288378274]}, {""species"": [{""element"": ""P"", ""occu"": 1}], ""abc"": [0.625, 0.1423012, 0.75], ""properties"": {""magmom"": 0.0}, ""label"": ""P"", ""xyz"": [2.9150068995126515, 0.6914826709641959, 3.127112171162172]}]}",ZnSiP2,122,1.3687000000000005,0.0,0.0262239021095219,0.0485804779373708,0.0171561370293302
mp-864755,"{""@module"": ""pymatgen.core.structure"", ""@class"": ""Structure"", ""charge"": 0, ""lattice"": {""matrix"": [[0.0, 3.96287644, 3.96287644], [3.96287644, -0.0, 3.96287644], [3.96287644, 3.96287644, -0.0]], ""pbc"": [true, true, true], ""a"": 5.604353607456809, ""b"": 5.604353607456809, ""c"": 5.604353607456809, ""alpha"": 60.00000000000001, ""beta"": 60.00000000000001, ""gamma"": 60.00000000000001, ""volume"": 124.46911172465487}, ""properties"": {}, ""sites"": [{""species"": [{""element"": ""Li"", ""occu"": 1}], ""abc"": [0.749999, 0.749999, 0.749999], ""properties"": {""magmom"": -0.0}, ""label"": ""Li"", ""xyz"": [5.94430673424712, 5.94430673424712, 5.94430673424712]}, {""species"": [{""element"": ""Ac"", ""occu"": 1}], ""abc"": [0.25, 0.25, 0.25], ""properties"": {""magmom"": 0.0}, ""label"": ""Ac"", ""xyz"": [1.98143822, 1.98143822, 1.98143822]}, {""species"": [{""element"": ""Te"", ""occu"": 1}], ""abc"": [0.499998999999999, 0.499998999999999, 0.499998999999999], ""properties"": {""magmom"": -0.0}, ""label"": ""Te"", ""xyz"": [3.9628685142471123, 3.9628685142471123, 3.9628685142471123]}, {""species"": [{""element"": ""Te"", ""occu"": 1}], ""abc"": [-0.0, 0.0, -0.0], ""properties"": {""magmom"": -0.0}, ""label"": ""Te"", ""xyz"": [0.0, 0.0, 0.0]}]}",LiAcTe2,225,0.6440999999999999,0.0,0.0680783711118836,0.3122745177035617,0.0327969441808892
mp-36111,"{""@module"": ""pymatgen.core.structure"", ""@class"": ""Structure"", ""charge"": 0, ""lattice"": {""matrix"": [[4.226697, 0.0, 0.0], [2.113348, 3.660427, 0.0], [2.113348, 1.220143, 3.451084]], ""pbc"": [true, true, true], ""a"": 4.226697, ""b"": 4.226696770698485, ""c"": 4.2266972312443905, ""alpha"": 59.9999985884675, ""beta"": 60.00000963618457, ""gamma"": 60.00000603177879, ""volume"": 53.39350070083401}, ""properties"": {}, ""sites"": [{""species"": [{""element"": ""Li"", ""occu"": 1}], ""abc"": [0.75, 0.75, 0.75], ""properties"": {""magmom"": 0.0}, ""label"": ""Li"", ""xyz"": [6.340044749999999, 3.6604275, 2.588313]}, {""species"": [{""element"": ""Mg"", ""occu"": 1}], ""abc"": [0.25, 0.25, 0.25], ""properties"": {""magmom"": 0.0}, ""label"": ""Mg"", ""xyz"": [2.11334825, 1.2201425, 0.862771]}, {""species"": [{""element"": ""P"", ""occu"": 1}], ""abc"": [0.0, 0.0, 0.0], ""properties"": {""magmom"": 0.0}, ""label"": ""P"", ""xyz"": [0.0, 0.0, 0.0]}]}",LiMgP,216,1.5295,0.0,0.0157587049591607,0.0266958981612579,0.0101136528318001
mp-1205992,"{""@module"": ""pymatgen.core.structure"", ""@class"": ""Structure"", ""charge"": 0, ""lattice"": {""matrix"": [[-0.0, 4.0892271, 4.0892271], [4.0892271, 0.0, 4.0892271], [4.0892271, 4.0892271, -0.0]], ""pbc"": [true, true, true], ""a"": 5.7830404244436, ""b"": 5.7830404244436, ""c"": 5.7830404244436, ""alpha"": 60.00000000000001, ""beta"": 60.00000000000001, ""gamma"": 60.00000000000001, ""volume"": 136.75829776770453}, ""properties"": {}, ""sites"": [{""species"": [{""element"": ""Hf"", ""occu"": 1}], ""abc"": [0.5, 0.5, 0.5], ""properties"": {""magmom"": 0.041}, ""label"": ""Hf"", ""xyz"": [4.0892271, 4.0892271, 4.0892271]}, {""species"": [{""element"": ""Mn"", ""occu"": 1}], ""abc"": [-0.0, -0.0, -0.0], ""properties"": {""magmom"": 4.639}, ""label"": ""Mn"", ""xyz"": [0.0, 0.0, 0.0]}, {""species"": [{""element"": ""F"", ""occu"": 1}], ""abc"": [0.74322127, 0.25677873, 0.25677873], ""properties"": {""magmom"": 0.023}, ""label"": ""F"", ""xyz"": [2.1000530828391657, 4.0892271, 4.0892271]}, {""species"": [{""element"": ""F"", ""occu"": 1}], ""abc"": [0.25677873, 0.74322127, 0.74322127], ""properties"": {""magmom"": 0.023}, ""label"": ""F"", ""xyz"": [6.078401117160833, 4.0892271, 4.0892271]}, {""species"": [{""element"": ""F"", ""occu"": 1}], ""abc"": [0.25677873, 0.74322127, 0.25677873], ""properties"": {""magmom"": 0.023}, ""label"": ""F"", ""xyz"": [4.0892271, 2.1000530828391657, 4.0892271]}, {""species"": [{""element"": ""F"", ""occu"": 1}], ""abc"": [0.74322127, 0.25677873, 0.74322127], ""properties"": {""magmom"": 0.023}, ""label"": ""F"", ""xyz"": [4.0892271, 6.078401117160833, 4.0892271]}, {""species"": [{""element"": ""F"", ""occu"": 1}], ""abc"": [0.25677873, 0.25677873, 0.74322127], ""properties"": {""magmom"": 0.023}, ""label"": ""F"", ""xyz"": [4.0892271, 4.0892271, 2.1000530828391657]}, {""species"": [{""element"": ""F"", ""occu"": 1}], ""abc"": [0.74322127, 0.74322127, 0.25677873], ""properties"": {""magmom"": 0.023}, ""label"": ""F"", ""xyz"": [4.0892271, 4.0892271, 6.078401117160833]}]}",HfMnF6,225,2.8359,0.0,0.0009292900573086,0.0013716331090644,0.0006551723469704
mp-1069706,"{""@module"": ""pymatgen.core.structure"", ""@class"": ""Structure"", ""charge"": 0, ""lattice"": {""matrix"": [[-1e-08, -0.0, 3.77128991], [-4.83854473, 3.71963041, 1.88564647], [-4.83854473, -3.71963041, 1.88564647]], ""pbc"": [true, true, true], ""a"": 3.77128991, ""b"": 6.387709143427791, ""c"": 6.387709143427791, ""alpha"": 71.22643778258828, ""beta"": 72.83051871561617, ""gamma"": 72.83051871561617, ""volume"": 135.74832023191166}, ""properties"": {}, ""sites"": [{""species"": [{""element"": ""K"", ""occu"": 1}], ""abc"": [0.19568941, 0.30431059, 0.30431059], ""properties"": {""magmom"": -0.0}, ""label"": ""K"", ""xyz"": [-2.944840805012275, 0.0, 1.885645877061088]}, {""species"": [{""element"": ""K"", ""occu"": 1}], ""abc"": [0.80431059, 0.6956894100000001, 0.6956894100000001], ""properties"": {""magmom"": -0.0}, ""label"": ""K"", ""xyz"": [-6.732248664987725, 0.0, 5.656936972938913]}, {""species"": [{""element"": ""Pd"", ""occu"": 1}], ""abc"": [0.0, 0.0, -0.0], ""properties"": {""magmom"": -0.0}, ""label"": ""Pd"", ""xyz"": [0.0, 0.0, 0.0]}, {""species"": [{""element"": ""Se"", ""occu"": 1}], ""abc"": [0.5, 0.22031071, 0.77968929], ""properties"": {""magmom"": -0.0}, ""label"": ""Se"", ""xyz"": [-4.838544734999999, -2.0806815768706177, 3.7712914250000003]}, {""species"": [{""element"": ""Se"", ""occu"": 1}], ""abc"": [0.5, 0.77968929, 0.22031071], ""properties"": {""magmom"": -0.0}, ""label"": ""Se"", ""xyz"": [-4.838544734999999, 2.0806815768706177, 3.7712914250000003]}]}",K2PdSe2,71,0.7461000000000002,0.0,0.0774130100247475,0.4976144576467244,0.0334226431038035
mp-27420,"{""@module"": ""pymatgen.core.structure"", ""@class"": ""Structure"", ""charge"": 0, ""lattice"": {""matrix"": [[4.7839694900000005, 0.06618692, 3.51582838], [1.81565407, 4.42653232, 3.5158203], [0.09722898, 0.06620009, 5.93615608]], ""pbc"": [true, true, true], ""a"": 5.937322122577094, ""b"": 5.93732098372694, ""c"": 5.937321360056975, ""alpha"": 52.74522811614661, ""beta"": 52.74523854347701, ""gamma"": 52.74522569922271, ""volume"": 122.81161659222802}, ""properties"": {}, ""sites"": [{""species"": [{""element"": ""Na"", ""occu"": 1}], ""abc"": [0.5, 0.5, 0.5], ""properties"": {""magmom"": 0.0}, ""label"": ""Na"", ""xyz"": [3.34842627, 2.2794596649999996, 6.48390238]}, {""species"": [{""element"": ""Bi"", ""occu"": 1}], ""abc"": [0.0, 0.0, 0.0], ""properties"": {""magmom"": 0.0}, ""label"": ""Bi"", ""xyz"": [0.0, 0.0, 0.0]}, {""species"": [{""element"": ""F"", ""occu"": 1}], ""abc"": [0.38502092, 0.76140576, 0.08399142], ""properties"": {""magmom"": -0.0}, ""label"": ""F"", ""xyz"": [3.2325442014525256, 3.4014307936677572, 4.529219483475471]}, {""species"": [{""element"": ""F"", ""occu"": 1}], ""abc"": [0.08399142, 0.38502092, 0.76140576], ""properties"": {""magmom"": -0.0}, ""label"": ""F"", ""xyz"": [1.174907896545845, 1.7602718094908791, 6.168787216144197]}, {""species"": [{""element"": ""F"", ""occu"": 1}], ""abc"": [0.76140576, 0.08399142, 0.38502092], ""properties"": {""magmom"": -0.0}, ""label"": ""F"", ""xyz"": [3.832476480248604, 0.44767425691323637, 5.257814994350488]}, {""species"": [{""element"": ""F"", ""occu"": 1}], ""abc"": [0.61497908, 0.23859424, 0.9160085800000001], ""properties"": {""magmom"": -0.0}, ""label"": ""F"", ""xyz"": [3.464308338547475, 1.1574885363322425, 8.43858527652453]}, {""species"": [{""element"": ""F"", ""occu"": 1}], ""abc"": [0.9160085800000001, 0.61497908, 0.23859424], ""properties"": {""magmom"": -0.0}, ""label"": ""F"", ""xyz"": [5.521944643454155, 2.7986475205091206, 6.799017543855804]}, {""species"": [{""element"": ""F"", ""occu"": 1}], ""abc"": [0.23859424, 0.9160085800000001, 0.61497908], ""properties"": {""magmom"": -0.0}, ""label"": ""F"", ""xyz"": [2.8643760597513968, 4.111245073086764, 7.709989765649512]}]}",NaBiF6,148,2.7058,0.0,0.0036408351469108,0.006238751340927,0.0024314683169533
mp-1067744,"{""@module"": ""pymatgen.core.structure"", ""@class"": ""Structure"", ""charge"": 0, ""lattice"": {""matrix"": [[-2.08775562, -3.61610048, -0.0], [2.08775562, -3.61610048, 0.0], [-0.0, -2.41073365, 7.72667734]], ""pbc"": [true, true, true], ""a"": 4.175512688317186, ""b"": 4.175512688317186, ""c"": 8.094021216163927, ""alpha"": 75.05224589331237, ""beta"": 75.05224589331237, ""gamma"": 59.999977051946566, ""volume"": 116.66562810994584}, ""properties"": {}, ""sites"": [{""species"": [{""element"": ""Y"", ""occu"": 1}], ""abc"": [0.5, 0.5, 0.5], ""properties"": {""magmom"": -0.0}, ""label"": ""Y"", ""xyz"": [0.0, -4.8214673050000005, 3.86333867]}, {""species"": [{""element"": ""Tl"", ""occu"": 1}], ""abc"": [-0.0, -0.0, -0.0], ""properties"": {""magmom"": 0.0}, ""label"": ""Tl"", ""xyz"": [0.0, 0.0, 0.0]}, {""species"": [{""element"": ""Se"", ""occu"": 1}], ""abc"": [0.23461324, 0.23461324, 0.29616129], ""properties"": {""magmom"": 0.0}, ""label"": ""Se"", ""xyz"": [0.0, -2.410736087187119, 2.288342728428169]}, {""species"": [{""element"": ""Se"", ""occu"": 1}], ""abc"": [0.76538676, 0.76538676, 0.70383871], ""properties"": {""magmom"": 0.0}, ""label"": ""Se"", ""xyz"": [0.0, -7.232198522812881, 5.438334611571832]}]}",YTlSe2,166,1.2823999999999995,0.0,0.0207441600313198,0.0381738428361466,0.0134738310320994