id,structure_json,formula,spacegroup,bandgap,energy_above_hull,k_1064,k_755,k_1500
mp-1219568,"{""@module"": ""pymatgen.core.structure"", ""@class"": ""Structure"", ""charge"": 0, ""lattice"": {""matrix"": [[-3.192872, 3.205808, 3.766085], [3.192872, -3.205808, 3.766085], [3.192872, 3.205808, -3.766085]], ""pbc"": [true, true, true], ""a"": 5.886852534969175, ""b"": 5.886852534969175, ""c"": 5.886852534969175, ""alpha"": 114.3092990304468, ""beta"": 114.00932290040618, ""gamma"": 100.45437186414544, ""volume"": 154.19458617284107}, ""properties"": {}, ""sites"": [{""species"": [{""element"": ""Rb"", ""occu"": 1}], ""abc"": [0.24804299999999901, 0.0, 0.24804299999999901], ""properties"": {""magmom"": -0.0}, ""label"": ""Rb"", ""xyz"": [0.0, 1.5903564674879938, 0.0]}, {""species"": [{""element"": ""Rb"", ""occu"": 1}], ""abc"": [0.748043, 0.5, 0.24804299999999901], ""properties"": {""magmom"": -0.0}, ""label"": ""Rb"", ""xyz"": [-3.1086244689504383e-15, 1.590356467487997, 3.7660850000000035]}, {""species"": [{""element"": ""C"", ""occu"": 1}], ""abc"": [0.001385, 0.247742, 0.749127], ""properties"": {""magmom"": 0.0}, ""label"": ""C"", ""xyz"": [3.1784529900479996, 1.6117840881600003, -1.8830424999999997]}, {""species"": [{""element"": ""C"", ""occu"": 1}], ""abc"": [0.501385, 0.752258, 0.753643], ""properties"": {""magmom"": 0.0}, ""label"": ""C"", ""xyz"": [3.207291009952, 1.6117840881599999, 1.8830425000000002]}, {""species"": [{""element"": ""N"", ""occu"": 1}], ""abc"": [0.134712, 0.116425, 0.751136999999999], ""properties"": {""magmom"": 0.0}, ""label"": ""N"", ""xyz"": [2.339896245199997, 2.4666256145919974, -1.8830424999999962]}, {""species"": [{""element"": ""N"", ""occu"": 1}], ""abc"": [0.634713, 0.883575, 0.018288], ""properties"": {""magmom"": 0.0}, ""label"": ""N"", ""xyz"": [0.8529757548000004, -0.7391759737919998, 5.6491275]}, {""species"": [{""element"": ""O"", ""occu"": 1}], ""abc"": [0.865858999999999, 0.384735, 0.750594], ""properties"": {""magmom"": 0.0}, ""label"": ""O"", ""xyz"": [0.8603832178400033, 3.9486514181439976, 1.8830424999999962]}, {""species"": [{""element"": ""O"", ""occu"": 1}], ""abc"": [0.365859, 0.615265, 0.481124999999999], ""properties"": {""magmom"": 0.0}, ""label"": ""O"", ""xyz"": [2.3324919750319966, 0.7428466239519971, 1.8830387339150032]}]}",RbCNO,46,4.555,0.0,0.0013360694383663,0.0019690800720132,0.0009608557545133
mp-7937,"{""@module"": ""pymatgen.core.structure"", ""@class"": ""Structure"", ""charge"": 0, ""lattice"": {""matrix"": [[3.42669221, -1e-08, -0.0], [-1.71334713, 2.96760321, -0.0], [-0.0, -0.0, 14.15652617]], ""pbc"": [true, true, true], ""a"": 3.42669221, ""b"": 3.4266933332122878, ""c"": 14.15652617, ""alpha"": 90.0, ""beta"": 90.0, ""gamma"": 120.0000091139904, ""volume"": 143.95860343944022}, ""properties"": {}, ""sites"": [{""species"": [{""element"": ""Na"", ""occu"": 1}], ""abc"": [0.0, 0.0, -0.0], ""properties"": {""magmom"": -0.0}, ""label"": ""Na"", ""xyz"": [0.0, 0.0, 0.0]}, {""species"": [{""element"": ""Na"", ""occu"": 1}], ""abc"": [0.0, 0.0, 0.5], ""properties"": {""magmom"": -0.0}, ""label"": ""Na"", ""xyz"": [0.0, 0.0, 7.078263085]}, {""species"": [{""element"": ""Nb"", ""occu"": 1}], ""abc"": [-0.0, 0.0, 0.25], ""properties"": {""magmom"": 0.0}, ""label"": ""Nb"", ""xyz"": [0.0, 0.0, 3.5391315425]}, {""species"": [{""element"": ""Nb"", ""occu"": 1}], ""abc"": [0.0, 0.0, 0.75], ""properties"": {""magmom"": 0.0}, ""label"": ""Nb"", ""xyz"": [0.0, 0.0, 10.6173946275]}, {""species"": [{""element"": ""S"", ""occu"": 1}], ""abc"": [0.333333, 0.666667, 0.13980374], ""properties"": {""magmom"": -0.0}, ""label"": ""S"", ""xyz"": [-2.3966797799701567e-06, 1.97840312586774, 1.979135303973876]}, {""species"": [{""element"": ""S"", ""occu"": 1}], ""abc"": [0.333333, 0.666667, 0.36019626], ""properties"": {""magmom"": -0.0}, ""label"": ""S"", ""xyz"": [-2.3966797799701567e-06, 1.97840312586774, 5.099127781026124]}, {""species"": [{""element"": ""S"", ""occu"": 1}], ""abc"": [0.666667, 0.333333, 0.6398037400000001], ""properties"": {""magmom"": -0.0}, ""label"": ""S"", ""xyz"": [1.7133474766797798, 0.98920007413226, 9.057398388973876]}, {""species"": [{""element"": ""S"", ""occu"": 1}], ""abc"": [0.666667, 0.333333, 0.86019626], ""properties"": {""magmom"": -0.0}, ""label"": ""S"", ""xyz"": [1.7133474766797798, 0.98920007413226, 12.177390866026125]}]}",NaNbS2,194,0.6242000000000001,0.0,0.1328823112977379,1.2095252099119231,0.0532516225987794
mp-1224,"{""@module"": ""pymatgen.core.structure"", ""@class"": ""Structure"", ""charge"": 0, ""lattice"": {""matrix"": [[3.58509138, 0.0, 0.0], [0.0, 5.56420636, 0.0], [0.0, 0.0, 6.69606078]], ""pbc"": [true, true, true], ""a"": 3.58509138, ""b"": 5.56420636, ""c"": 6.69606078, ""alpha"": 90.0, ""beta"": 90.0, ""gamma"": 90.0, ""volume"": 133.5742810249583}, ""properties"": {}, ""sites"": [{""species"": [{""element"": ""Hg"", ""occu"": 1}], ""abc"": [0.74615555, 0.75, 0.38497903], ""properties"": {""magmom"": -0.0}, ""label"": ""Hg"", ""xyz"": [2.675035830444159, 4.17315477, 2.5778429839054433]}, {""species"": [{""element"": ""Hg"", ""occu"": 1}], ""abc"": [0.24615555, 0.25, 0.11501997], ""properties"": {""magmom"": -0.0}, ""label"": ""Hg"", ""xyz"": [0.8824901404441591, 1.39105159, 0.7701807100337765]}, {""species"": [{""element"": ""Hg"", ""occu"": 1}], ""abc"": [0.25384445, 0.25, 0.61502097], ""properties"": {""magmom"": -0.0}, ""label"": ""Hg"", ""xyz"": [0.910055549555841, 1.39105159, 4.118217796094556]}, {""species"": [{""element"": ""Hg"", ""occu"": 1}], ""abc"": [0.75384445, 0.75, 0.88497903], ""properties"": {""magmom"": -0.0}, ""label"": ""Hg"", ""xyz"": [2.702601239555841, 4.17315477, 5.925873373905444]}, {""species"": [{""element"": ""O"", ""occu"": 1}], ""abc"": [0.08245941, 0.75, 0.13685368], ""properties"": {""magmom"": 0.0}, ""label"": ""O"", ""xyz"": [0.2956245199908858, 4.17315477, 0.9163805592466704]}, {""species"": [{""element"": ""O"", ""occu"": 1}], ""abc"": [0.58245941, 0.25, 0.36314632], ""properties"": {""magmom"": 0.0}, ""label"": ""O"", ""xyz"": [2.088170209990886, 1.39105159, 2.43164983075333]}, {""species"": [{""element"": ""O"", ""occu"": 1}], ""abc"": [0.91754059, 0.25, 0.86314632], ""properties"": {""magmom"": 0.0}, ""label"": ""O"", ""xyz"": [3.289466860009114, 1.39105159, 5.779680220753329]}, {""species"": [{""element"": ""O"", ""occu"": 1}], ""abc"": [0.41754059, 0.75, 0.63685368], ""properties"": {""magmom"": 0.0}, ""label"": ""O"", ""xyz"": [1.4969211700091143, 4.17315477, 4.26441094924667]}]}",HgO,62,1.2547,0.0,0.0163904968883302,0.0484626883249114,0.0094363617343262
mp-14088,"{""@module"": ""pymatgen.core.structure"", ""@class"": ""Structure"", ""charge"": 0, ""lattice"": {""matrix"": [[5.19760295, 0.0, 3.00083847], [1.73253432, 4.90034844, 3.00083847], [0.0, 0.0, 6.00167594]], ""pbc"": [true, true, true], ""a"": 6.001675428485004, ""b"": 6.0016765596306705, ""c"": 6.00167594, ""alpha"": 59.99999790349979, ""beta"": 59.99999166890707, ""gamma"": 60.00000064870734, ""volume"": 152.8630793482185}, ""properties"": {}, ""sites"": [{""species"": [{""element"": ""Rb"", ""occu"": 1}], ""abc"": [0.25, 0.25, 0.25], ""properties"": {""magmom"": -0.0}, ""label"": ""Rb"", ""xyz"": [1.7325343175, 1.22508711, 3.0008382200000003]}, {""species"": [{""element"": ""Rb"", ""occu"": 1}], ""abc"": [0.75, 0.75, 0.75], ""properties"": {""magmom"": -0.0}, ""label"": ""Rb"", ""xyz"": [5.1976029525000005, 3.67526133, 9.002514660000001]}, {""species"": [{""element"": ""Pd"", ""occu"": 1}], ""abc"": [0.0, -0.0, 0.0], ""properties"": {""magmom"": -0.0}, ""label"": ""Pd"", ""xyz"": [0.0, 0.0, 0.0]}, {""species"": [{""element"": ""F"", ""occu"": 1}], ""abc"": [0.22650192, 0.77349808, 0.77349808], ""properties"": {""magmom"": 0.0}, ""label"": ""F"", ""xyz"": [2.5173790176267694, 3.790410109670995, 7.6431232863721945]}, {""species"": [{""element"": ""F"", ""occu"": 1}], ""abc"": [0.22650192, 0.77349808, 0.22650192], ""properties"": {""magmom"": 0.0}, ""label"": ""F"", ""xyz"": [2.5173790176267694, 3.790410109670995, 4.360229593627805]}, {""species"": [{""element"": ""F"", ""occu"": 1}], ""abc"": [0.77349808, 0.22650192, 0.77349808], ""properties"": {""magmom"": 0.0}, ""label"": ""F"", ""xyz"": [4.41275825237323, 1.109938330329005, 7.6431232863721945]}, {""species"": [{""element"": ""F"", ""occu"": 1}], ""abc"": [0.77349808, 0.22650192, 0.22650192], ""properties"": {""magmom"": 0.0}, ""label"": ""F"", ""xyz"": [4.41275825237323, 1.109938330329005, 4.360229593627805]}, {""species"": [{""element"": ""F"", ""occu"": 1}], ""abc"": [0.77349808, 0.77349808, 0.22650192], ""properties"": {""magmom"": 0.0}, ""label"": ""F"", ""xyz"": [5.3604478724814415, 3.790410109670995, 6.00167671349808]}, {""species"": [{""element"": ""F"", ""occu"": 1}], ""abc"": [0.22650192, 0.22650192, 0.77349808], ""properties"": {""magmom"": 0.0}, ""label"": ""F"", ""xyz"": [1.5696893975185584, 1.109938330329005, 6.00167616650192]}]}",Rb2PdF6,225,2.1715,0.0,0.0040528724708881,0.0064553075226355,0.0026813579346932
mp-7482,"{""@module"": ""pymatgen.core.structure"", ""@class"": ""Structure"", ""charge"": 0, ""lattice"": {""matrix"": [[4.54921913, -0.0, 0.0], [-0.0, 4.54921913, 0.0], [0.0, 0.0, 4.54921913]], ""pbc"": [true, true, true], ""a"": 4.54921913, ""b"": 4.54921913, ""c"": 4.54921913, ""alpha"": 90.0, ""beta"": 90.0, ""gamma"": 90.0, ""volume"": 94.14788543919498}, ""properties"": {}, ""sites"": [{""species"": [{""element"": ""Rb"", ""occu"": 1}], ""abc"": [0.0, 0.0, 0.0], ""properties"": {""magmom"": -0.0}, ""label"": ""Rb"", ""xyz"": [0.0, 0.0, 0.0]}, {""species"": [{""element"": ""Hg"", ""occu"": 1}], ""abc"": [0.5, 0.5, 0.5], ""properties"": {""magmom"": -0.0}, ""label"": ""Hg"", ""xyz"": [2.274609565, 2.274609565, 2.274609565]}, {""species"": [{""element"": ""F"", ""occu"": 1}], ""abc"": [0.5, 0.0, 0.5], ""properties"": {""magmom"": 0.0}, ""label"": ""F"", ""xyz"": [2.274609565, 0.0, 2.274609565]}, {""species"": [{""element"": ""F"", ""occu"": 1}], ""abc"": [0.5, 0.5, 0.0], ""properties"": {""magmom"": 0.0}, ""label"": ""F"", ""xyz"": [2.274609565, 2.274609565, 0.0]}, {""species"": [{""element"": ""F"", ""occu"": 1}], ""abc"": [0.0, 0.5, 0.5], ""properties"": {""magmom"": 0.0}, ""label"": ""F"", ""xyz"": [0.0, 2.274609565, 2.274609565]}]}",RbHgF3,221,0.6477999999999999,0.0,0.0050416025521377,0.0087599054616507,0.0032830830961095
mp-753712,"{""@module"": ""pymatgen.core.structure"", ""@class"": ""Structure"", ""charge"": 0, ""lattice"": {""matrix"": [[3.939309869999999, 0.0, 0.0], [0.0, 3.939309869999999, -0.0], [0.0, 0.0, 9.48607016]], ""pbc"": [true, true, true], ""a"": 3.939309869999999, ""b"": 3.939309869999999, ""c"": 9.48607016, ""alpha"": 90.0, ""beta"": 90.0, ""gamma"": 90.0, ""volume"": 147.20637587559168}, ""properties"": {}, ""sites"": [{""species"": [{""element"": ""Y"", ""occu"": 1}], ""abc"": [0.0, 0.5, 0.11411803000000001], ""properties"": {""magmom"": -0.0}, ""label"": ""Y"", ""xyz"": [0.0, 1.9696549349999994, 1.082531639100985]}, {""species"": [{""element"": ""Y"", ""occu"": 1}], ""abc"": [0.5, -0.0, 0.88588197], ""properties"": {""magmom"": -0.0}, ""label"": ""Y"", ""xyz"": [1.9696549349999994, 0.0, 8.403538520899016]}, {""species"": [{""element"": ""I"", ""occu"": 1}], ""abc"": [-0.0, 0.5, 0.68470285], ""properties"": {""magmom"": -0.0}, ""label"": ""I"", ""xyz"": [0.0, 1.9696549349999994, 6.495139273851956]}, {""species"": [{""element"": ""I"", ""occu"": 1}], ""abc"": [0.5, 0.0, 0.31529715], ""properties"": {""magmom"": -0.0}, ""label"": ""I"", ""xyz"": [1.9696549349999994, 0.0, 2.9909308861480444]}, {""species"": [{""element"": ""O"", ""occu"": 1}], ""abc"": [0.0, 0.0, -0.0], ""properties"": {""magmom"": 0.0}, ""label"": ""O"", ""xyz"": [0.0, 0.0, 0.0]}, {""species"": [{""element"": ""O"", ""occu"": 1}], ""abc"": [0.5, 0.5, -0.0], ""properties"": {""magmom"": 0.0}, ""label"": ""O"", ""xyz"": [1.9696549349999994, 1.9696549349999994, 0.0]}]}",YIO,129,3.4296,0.0,0.0052324413239808,0.0079053709184712,0.0035219757232247
mp-2507,"{""@module"": ""pymatgen.core.structure"", ""@class"": ""Structure"", ""charge"": 0, ""lattice"": {""matrix"": [[3.5932455, -1e-08, -0.0], [-1.79662527, 3.11184472, 0.0], [-0.0, 0.0, 16.01465599]], ""pbc"": [true, true, true], ""a"": 3.5932455, ""b"": 3.593249215152555, ""c"": 16.01465599, ""alpha"": 90.0, ""beta"": 90.0, ""gamma"": 120.00001235610424, ""volume"": 179.0698300424525}, ""properties"": {}, ""sites"": [{""species"": [{""element"": ""Ga"", ""occu"": 1}], ""abc"": [0.333333, 0.666667, 0.32644957], ""properties"": {""magmom"": 0.0}, ""label"": ""Ga"", ""xyz"": [-3.4766235901262377e-06, 2.07456418061491, 5.227977561633425]}, {""species"": [{""element"": ""Ga"", ""occu"": 1}], ""abc"": [0.666667, 0.333333, 0.82644957], ""properties"": {""magmom"": 0.0}, ""label"": ""Ga"", ""xyz"": [1.7966237066235902, 1.03728052938509, 13.235305556633424]}, {""species"": [{""element"": ""Ga"", ""occu"": 1}], ""abc"": [0.666667, 0.333333, 0.67355043], ""properties"": {""magmom"": 0.0}, ""label"": ""Ga"", ""xyz"": [1.7966237066235902, 1.03728052938509, 10.786678428366578]}, {""species"": [{""element"": ""Ga"", ""occu"": 1}], ""abc"": [0.333333, 0.666667, 0.17355043], ""properties"": {""magmom"": 0.0}, ""label"": ""Ga"", ""xyz"": [-3.4766235901262377e-06, 2.07456418061491, 2.779350433366576]}, {""species"": [{""element"": ""S"", ""occu"": 1}], ""abc"": [0.333333, 0.666667, 0.893148899999999], ""properties"": {""magmom"": -0.0}, ""label"": ""S"", ""xyz"": [-3.4766235901262377e-06, 2.07456418061491, 14.303472381346896]}, {""species"": [{""element"": ""S"", ""occu"": 1}], ""abc"": [0.666667, 0.333333, 0.393148899999999], ""properties"": {""magmom"": -0.0}, ""label"": ""S"", ""xyz"": [1.7966237066235902, 1.03728052938509, 6.296144386346896]}, {""species"": [{""element"": ""S"", ""occu"": 1}], ""abc"": [0.666667, 0.333333, 0.106851099999999], ""properties"": {""magmom"": -0.0}, ""label"": ""S"", ""xyz"": [1.7966237066235902, 1.03728052938509, 1.7111836086530732]}, {""species"": [{""element"": ""S"", ""occu"": 1}], ""abc"": [0.333333, 0.666667, 0.6068511], ""properties"": {""magmom"": -0.0}, ""label"": ""S"", ""xyz"": [-3.4766235901262377e-06, 2.07456418061491, 9.71851160365309]}]}",GaS,194,1.9918,0.0,0.0119414785418575,0.0207277352649964,0.0077704737041894
mp-10919,"{""@module"": ""pymatgen.core.structure"", ""@class"": ""Structure"", ""charge"": 0, ""lattice"": {""matrix"": [[5.40589341, 0.0, -0.0], [-2.7029467, 4.68164125, -0.0], [-0.0, -0.0, 5.20080089]], ""pbc"": [true, true, true], ""a"": 5.40589341, ""b"": 5.4058936039051355, ""c"": 5.20080089, ""alpha"": 90.0, ""beta"": 90.0, ""gamma"": 119.99999875226409, ""volume"": 131.62422791045643}, ""properties"": {}, ""sites"": [{""species"": [{""element"": ""Rb"", ""occu"": 1}], ""abc"": [0.333333, 0.666667, 0.28089926], ""properties"": {""magmom"": 0.0}, ""label"": ""Rb"", ""xyz"": [-2.699613370182874e-06, 3.12109572721375, 1.4609011214083414]}, {""species"": [{""element"": ""Rb"", ""occu"": 1}], ""abc"": [0.666667, 0.333333, 0.71910074], ""properties"": {""magmom"": 0.0}, ""label"": ""Rb"", ""xyz"": [2.70294940961337, 1.56054552278625, 3.7398997685916586]}, {""species"": [{""element"": ""Pt"", ""occu"": 1}], ""abc"": [0.0, 0.0, -0.0], ""properties"": {""magmom"": 0.0}, ""label"": ""Pt"", ""xyz"": [0.0, 0.0, 0.0]}, {""species"": [{""element"": ""C"", ""occu"": 1}], ""abc"": [0.0, 0.0, 0.62205521], ""properties"": {""magmom"": -0.0}, ""label"": ""C"", ""xyz"": [0.0, 0.0, 3.235185289797137]}, {""species"": [{""element"": ""C"", ""occu"": 1}], ""abc"": [0.0, 0.0, 0.37794479000000003], ""properties"": {""magmom"": -0.0}, ""label"": ""C"", ""xyz"": [0.0, 0.0, 1.9656156002028633]}]}",Rb2PtC2,164,1.3292,0.0,0.1951474883873635,1.6924895249408394,0.0638801741081774
mp-999121,"{""@module"": ""pymatgen.core.structure"", ""@class"": ""Structure"", ""charge"": 0, ""lattice"": {""matrix"": [[-2.232125, -3.8661558, -0.0], [-4.46425104, 1e-08, 0.0], [-2.232125, -1.2887196300000001, -8.13437616]], ""pbc"": [true, true, true], ""a"": 4.464251637788649, ""b"": 4.46425104, ""c"": 8.532951178387737, ""alpha"": 74.83563943895852, ""beta"": 74.83563131429578, ""gamma"": 60.00001226422062, ""volume"": 140.39518458579084}, ""properties"": {}, ""sites"": [{""species"": [{""element"": ""Tb"", ""occu"": 1}], ""abc"": [-0.0, 0.0, 0.0], ""properties"": {""magmom"": -0.0}, ""label"": ""Tb"", ""xyz"": [0.0, 0.0, 0.0]}, {""species"": [{""element"": ""Tl"", ""occu"": 1}], ""abc"": [0.5, 0.5, 0.5], ""properties"": {""magmom"": -0.0}, ""label"": ""Tl"", ""xyz"": [-4.46425052, -2.57743771, -4.06718808]}, {""species"": [{""element"": ""Te"", ""occu"": 1}], ""abc"": [0.7380751, 0.7380751, 0.7857727], ""properties"": {""magmom"": 0.0}, ""label"": ""Te"", ""xyz"": [-6.696371303348104, -3.8661540245279298, -6.391770718058832]}, {""species"": [{""element"": ""Te"", ""occu"": 1}], ""abc"": [0.261924899999999, 0.261924899999999, 0.214227299999999], ""properties"": {""magmom"": 0.0}, ""label"": ""Te"", ""xyz"": [-2.232129736651887, -1.2887213954720649, -1.74260544194116]}]}",TbTlTe2,166,0.6258999999999997,0.0,0.0408533034416781,0.0963186337845211,0.0250096708810117
mp-10401,"{""@module"": ""pymatgen.core.structure"", ""@class"": ""Structure"", ""charge"": 0, ""lattice"": {""matrix"": [[6.00642075, 0.0, -0.0], [-3.00321088, 5.20171374, -0.0], [-0.0, -0.0, 4.80758079]], ""pbc"": [true, true, true], ""a"": 6.00642075, ""b"": 6.006421682054563, ""c"": 4.80758079, ""alpha"": 90.0, ""beta"": 90.0, ""gamma"": 120.00000042927628, ""volume"": 150.20652223587325}, ""properties"": {}, ""sites"": [{""species"": [{""element"": ""Tl"", ""occu"": 1}], ""abc"": [0.666667, 0.333333, 0.31383582], ""properties"": {""magmom"": -0.0}, ""label"": ""Tl"", ""xyz"": [3.0032132098772104, 1.7339028460954198, 1.5087910594458978]}, {""species"": [{""element"": ""Tl"", ""occu"": 1}], ""abc"": [0.333333, 0.666667, 0.68616418], ""properties"": {""magmom"": -0.0}, ""label"": ""Tl"", ""xyz"": [-3.3398772099069163e-06, 3.4678108939045797, 3.2987897305541023]}, {""species"": [{""element"": ""Sn"", ""occu"": 1}], ""abc"": [0.0, -0.0, 0.0], ""properties"": {""magmom"": -0.0}, ""label"": ""Sn"", ""xyz"": [0.0, 0.0, 0.0]}, {""species"": [{""element"": ""F"", ""occu"": 1}], ""abc"": [0.84109833, 0.15890167, 0.77117865], ""properties"": {""magmom"": 0.0}, ""label"": ""F"", ""xyz"": [4.574775237908177, 0.8265610001479458, 3.7075036633981338]}, {""species"": [{""element"": ""F"", ""occu"": 1}], ""abc"": [0.84109833, 0.68219666, 0.77117865], ""properties"": {""magmom"": 0.0}, ""label"": ""F"", ""xyz"": [3.0032100304906866, 3.5485917397041082, 3.7075036633981338]}, {""species"": [{""element"": ""F"", ""occu"": 1}], ""abc"": [0.31780334, 0.15890167, 0.77117865], ""properties"": {""magmom"": 0.0}, ""label"": ""F"", ""xyz"": [1.4316453516011354, 0.8265610001479458, 3.7075036633981338]}, {""species"": [{""element"": ""F"", ""occu"": 1}], ""abc"": [0.15890167, 0.84109833, 0.22882135], ""properties"": {""magmom"": 0.0}, ""label"": ""F"", ""xyz"": [-1.571565367908178, 4.375152739852054, 1.1000771266018665]}, {""species"": [{""element"": ""F"", ""occu"": 1}], ""abc"": [0.15890167, 0.31780334, 0.22882135], ""properties"": {""magmom"": 0.0}, ""label"": ""F"", ""xyz"": [-1.6049068674028888e-07, 1.6531220002958915, 1.1000771266018665]}, {""species"": [{""element"": ""F"", ""occu"": 1}], ""abc"": [0.68219666, 0.84109833, 0.22882135], ""properties"": {""magmom"": 0.0}, ""label"": ""F"", ""xyz"": [1.5715645183988642, 4.375152739852054, 1.1000771266018665]}]}",Tl2SnF6,164,4.3277,0.0,0.0025699471332787,0.0038827376174999,0.0017920782922589