id,structure_json,formula,spacegroup,bandgap,energy_above_hull,k_1064,k_755,k_1500
mp-570097,"{""@module"": ""pymatgen.core.structure"", ""@class"": ""Structure"", ""charge"": 0, ""lattice"": {""matrix"": [[4.13728003, 0.00718257, 7.1070717], [1.92348119, 3.66297045, 7.1070717], [0.01186038, 0.00718257, 8.22358853]], ""pbc"": [true, true, true], ""a"": 8.223600536558758, ""b"": 8.223600218565949, ""c"": 8.223600219409569, ""alpha"": 30.122559664004513, ""beta"": 30.122565942011633, ""gamma"": 30.122560209847418, ""volume"": 124.09152381427627}, ""properties"": {}, ""sites"": [{""species"": [{""element"": ""Sr"", ""occu"": 1}], ""abc"": [-0.0, 0.0, -0.0], ""properties"": {""magmom"": -0.0}, ""label"": ""Sr"", ""xyz"": [0.0, 0.0, 0.0]}, {""species"": [{""element"": ""Li"", ""occu"": 1}], ""abc"": [0.42982929000000003, 0.42982929000000003, 0.42982929000000003], ""properties"": {""magmom"": -0.0}, ""label"": ""Li"", ""xyz"": [2.6101906307666645, 1.5806265457414312, 9.64439438468223]}, {""species"": [{""element"": ""Li"", ""occu"": 1}], ""abc"": [0.13797511, 0.13797511, 0.13797511], ""properties"": {""magmom"": 0.0}, ""label"": ""Li"", ""xyz"": [0.8378706332483761, 0.507380782537165, 3.0958485311922628]}, {""species"": [{""element"": ""Li"", ""occu"": 1}], ""abc"": [0.57017071, 0.57017071, 0.57017071], ""properties"": {""magmom"": -0.0}, ""label"": ""Li"", ""xyz"": [3.4624309692333357, 2.0967090442585685, 12.793337545317769]}, {""species"": [{""element"": ""Li"", ""occu"": 1}], ""abc"": [0.86202489, 0.86202489, 0.86202489], ""properties"": {""magmom"": 0.0}, ""label"": ""Li"", ""xyz"": [5.2347509667516245, 3.169954807462835, 19.341883398807738]}, {""species"": [{""element"": ""P"", ""occu"": 1}], ""abc"": [0.75452378, 0.75452378, 0.75452378], ""properties"": {""magmom"": 0.0}, ""label"": ""P"", ""xyz"": [4.581937404141648, 2.77463714969533, 16.929802310450295]}, {""species"": [{""element"": ""P"", ""occu"": 1}], ""abc"": [0.24547622, 0.24547622, 0.24547622], ""properties"": {""magmom"": 0.0}, ""label"": ""P"", ""xyz"": [1.4906841958583519, 0.9026984403046697, 5.507929619549705]}]}",Sr(Li2P)2,166,1.0221999999999998,0.0,0.0351110764230376,0.083446329037526,0.0203587873148356
mp-1399447,"{""@module"": ""pymatgen.core.structure"", ""@class"": ""Structure"", ""charge"": 0, ""lattice"": {""matrix"": [[4.69269228, -2.60827913, 5.5110000000000006e-05], [4.692691, 2.60828144, 5.8890000000000014e-05], [3.24291247, -2.31e-06, 4.27878467]], ""pbc"": [true, true, true], ""a"": 5.3688435307617475, ""b"": 5.3688435342443634, ""c"": 5.368843408064147, ""alpha"": 58.13213705761989, ""beta"": 58.13213697043832, ""gamma"": 58.132145660971936, ""volume"": 104.74244436844187}, ""properties"": {}, ""sites"": [{""species"": [{""element"": ""Mg"", ""occu"": 1}], ""abc"": [0.5, 0.5, 0.5], ""properties"": {""magmom"": -0.0}, ""label"": ""Mg"", ""xyz"": [6.314147875, -1.3609617176713745e-16, 2.139449335]}, {""species"": [{""element"": ""Ti"", ""occu"": 1}], ""abc"": [0.0, -0.0, 0.0], ""properties"": {""magmom"": 0.0}, ""label"": ""Ti"", ""xyz"": [0.0, 0.0, 0.0]}, {""species"": [{""element"": ""F"", ""occu"": 1}], ""abc"": [0.6716176500000001, 0.84245558, 0.24224433], ""properties"": {""magmom"": -0.0}, ""label"": ""F"", ""xyz"": [7.8906558379763165, 0.4455943939193879, 1.036597950656219]}, {""species"": [{""element"": ""F"", ""occu"": 1}], ""abc"": [0.84245558, 0.24224433, 0.6716176500000001], ""properties"": {""magmom"": -0.0}, ""label"": ""F"", ""xyz"": [7.268159835958048, -1.5655194688185818, 2.8737679984170335]}, {""species"": [{""element"": ""F"", ""occu"": 1}], ""abc"": [0.75775567, 0.32838235, 0.15754442], ""properties"": {""magmom"": -0.0}, ""label"": ""F"", ""xyz"": [5.607813845335995, -1.1199250748991936, 0.6741597474916066]}, {""species"": [{""element"": ""F"", ""occu"": 1}], ""abc"": [0.15754442, 0.75775567, 0.32838235], ""properties"": {""magmom"": -0.0}, ""label"": ""F"", ""xyz"": [5.360135914041952, 1.5655194688185816, 1.405130671582967]}, {""species"": [{""element"": ""F"", ""occu"": 1}], ""abc"": [0.32838235, 0.15754442, 0.75775567], ""properties"": {""magmom"": -0.0}, ""label"": ""F"", ""xyz"": [4.737639912023683, -0.44559439391938843, 3.2423007193437816]}, {""species"": [{""element"": ""F"", ""occu"": 1}], ""abc"": [0.24224433, 0.6716176500000001, 0.84245558], ""properties"": {""magmom"": -0.0}, ""label"": ""F"", ""xyz"": [7.020481904664005, 1.1199250748991934, 3.6047389225083935]}]}",MgTiF6,148,4.4964,0.0,0.0021841446948736,0.0032816168827825,0.0015033012197386
mp-10572,"{""@module"": ""pymatgen.core.structure"", ""@class"": ""Structure"", ""charge"": 0, ""lattice"": {""matrix"": [[4.28319249, -0.0060496, -2.45173316], [-2.84174202, 4.03488141, -0.03178741], [-0.00426114, 0.00604961, 4.93525273]], ""pbc"": [true, true, true], ""a"": 4.935257844519994, ""b"": 4.935258467439348, ""c"": 4.935258277341491, ""alpha"": 90.28313148784908, ""beta"": 119.83668175018481, ""gamma"": 119.83666041236006, ""volume"": 85.20786980101154}, ""properties"": {}, ""sites"": [{""species"": [{""element"": ""Na"", ""occu"": 1}], ""abc"": [-0.0, 0.5, 0.5], ""properties"": {""magmom"": -0.0}, ""label"": ""Na"", ""xyz"": [-1.42300158, 2.0204655099999997, 2.4517326600000002]}, {""species"": [{""element"": ""Na"", ""occu"": 1}], ""abc"": [0.5, 0.25, 0.75], ""properties"": {""magmom"": -0.0}, ""label"": ""Na"", ""xyz"": [1.4279648850000002, 1.01023276, 2.4676261150000003]}, {""species"": [{""element"": ""P"", ""occu"": 1}], ""abc"": [0.5, 0.75, 0.25], ""properties"": {""magmom"": 0.0}, ""label"": ""P"", ""xyz"": [0.00922444500000022, 3.0246486599999995, -0.015893954999999904]}, {""species"": [{""element"": ""P"", ""occu"": 1}], ""abc"": [-0.0, -0.0, -0.0], ""properties"": {""magmom"": 0.0}, ""label"": ""P"", ""xyz"": [0.0, 0.0, 0.0]}, {""species"": [{""element"": ""N"", ""occu"": 1}], ""abc"": [0.62393193, 0.875, 0.99893193], ""properties"": {""magmom"": -0.0}, ""label"": ""N"", ""xyz"": [0.1816397005430056, 3.532789843739319, 3.37245294850287]}, {""species"": [{""element"": ""N"", ""occu"": 1}], ""abc"": [0.87606807, 0.00106807, 0.625], ""properties"": {""magmom"": -0.0}, ""label"": ""N"", ""xyz"": [3.7466697862534932, 0.0027906806413066994, 0.9366138674348004]}, {""species"": [{""element"": ""N"", ""occu"": 1}], ""abc"": [0.37606807000000003, 0.375, 0.25106807000000003], ""properties"": {""magmom"": -0.0}, ""label"": ""N"", ""xyz"": [0.5440488394569948, 1.5123243312606804, 0.30514554149713013]}, {""species"": [{""element"": ""N"", ""occu"": 1}], ""abc"": [0.12393193, 0.74893193, 0.125], ""properties"": {""magmom"": -0.0}, ""label"": ""N"", ""xyz"": [-1.5979796662534929, 3.0218579843586935, 0.28925196256519997]}]}",NaPN2,122,4.6869,0.0,0.0026706695085491,0.0039006292335473,0.0018544332527315
mp-9370,"{""@module"": ""pymatgen.core.structure"", ""@class"": ""Structure"", ""charge"": 0, ""lattice"": {""matrix"": [[7.71540732, -1.9835511700000001, 0.00370353], [7.71540732, 1.9835511700000001, 0.00370353], [7.20382543, 0.0, 3.40101363]], ""pbc"": [true, true, true], ""a"": 7.9663039782356035, ""b"": 7.9663039782356035, ""c"": 7.966303693518122, ""alpha"": 28.83582764952511, ""beta"": 28.83582764952511, ""gamma"": 28.835821307239435, ""volume"": 103.99173982934585}, ""properties"": {}, ""sites"": [{""species"": [{""element"": ""Rb"", ""occu"": 1}], ""abc"": [-0.0, -0.0, 0.0], ""properties"": {""magmom"": 0.0}, ""label"": ""Rb"", ""xyz"": [0.0, 0.0, 0.0]}, {""species"": [{""element"": ""Lu"", ""occu"": 1}], ""abc"": [0.5, 0.5, 0.5], ""properties"": {""magmom"": -0.0}, ""label"": ""Lu"", ""xyz"": [11.317320035, 0.0, 1.704210345]}, {""species"": [{""element"": ""S"", ""occu"": 1}], ""abc"": [0.77044166, 0.77044166, 0.77044166], ""properties"": {""magmom"": -0.0}, ""label"": ""S"", ""xyz"": [17.438669669033317, 0.0, 2.6259892943819456]}, {""species"": [{""element"": ""S"", ""occu"": 1}], ""abc"": [0.22955834, 0.22955834, 0.22955834], ""properties"": {""magmom"": -0.0}, ""label"": ""S"", ""xyz"": [5.195970400966684, 0.0, 0.7824313956180545]}]}",RbLuS2,166,2.433,0.0,0.0084055917875328,0.0139122929465757,0.0055857481907677
mp-755756,"{""@module"": ""pymatgen.core.structure"", ""@class"": ""Structure"", ""charge"": 0, ""lattice"": {""matrix"": [[-1.96214887, 1.96214887, 6.22696103], [1.96214887, -1.96214887, 6.22696103], [1.96214887, 1.96214887, -6.22696103]], ""pbc"": [true, true, true], ""a"": 6.817264850746464, ""b"": 6.817264850746464, ""c"": 6.817264850746464, ""alpha"": 146.54495999840677, ""beta"": 146.54495999840677, ""gamma"": 48.03801898832423, ""volume"": 95.89590196536308}, ""properties"": {}, ""sites"": [{""species"": [{""element"": ""Y"", ""occu"": 1}], ""abc"": [0.33680844, 0.33680844, -0.0], ""properties"": {""magmom"": 0.0}, ""label"": ""Y"", ""xyz"": [0.0, 0.0, 4.194586060910186]}, {""species"": [{""element"": ""Y"", ""occu"": 1}], ""abc"": [0.66319156, 0.66319156, 0.0], ""properties"": {""magmom"": 0.0}, ""label"": ""Y"", ""xyz"": [0.0, 0.0, 8.259335999089814]}, {""species"": [{""element"": ""Te"", ""occu"": 1}], ""abc"": [-0.0, -0.0, 0.0], ""properties"": {""magmom"": 0.0}, ""label"": ""Te"", ""xyz"": [0.0, 0.0, 0.0]}, {""species"": [{""element"": ""O"", ""occu"": 1}], ""abc"": [0.75, 0.25, 0.5], ""properties"": {""magmom"": -0.0}, ""label"": ""O"", ""xyz"": [0.0, 1.96214887, 3.113480515]}, {""species"": [{""element"": ""O"", ""occu"": 1}], ""abc"": [0.25, 0.75, 0.5], ""properties"": {""magmom"": -0.0}, ""label"": ""O"", ""xyz"": [1.96214887, 0.0, 3.113480515]}]}",Y2TeO2,139,1.0408,0.0,0.0191116776233657,0.037164678093566,0.011414157192514
mp-28171,"{""@module"": ""pymatgen.core.structure"", ""@class"": ""Structure"", ""charge"": 0, ""lattice"": {""matrix"": [[5.29423015, 0.0, -0.0], [0.0, 5.29423015, 0.0], [-0.0, 0.0, 5.29423015]], ""pbc"": [true, true, true], ""a"": 5.29423015, ""b"": 5.29423015, ""c"": 5.29423015, ""alpha"": 90.0, ""beta"": 90.0, ""gamma"": 90.0, ""volume"": 148.3913038780024}, ""properties"": {}, ""sites"": [{""species"": [{""element"": ""K"", ""occu"": 1}], ""abc"": [0.5, -0.0, -0.0], ""properties"": {""magmom"": 0.0}, ""label"": ""K"", ""xyz"": [2.647115075, 0.0, 0.0]}, {""species"": [{""element"": ""K"", ""occu"": 1}], ""abc"": [-0.0, -0.0, 0.5], ""properties"": {""magmom"": 0.0}, ""label"": ""K"", ""xyz"": [0.0, 0.0, 2.647115075]}, {""species"": [{""element"": ""K"", ""occu"": 1}], ""abc"": [-0.0, 0.5, -0.0], ""properties"": {""magmom"": 0.0}, ""label"": ""K"", ""xyz"": [0.0, 2.647115075, 0.0]}, {""species"": [{""element"": ""I"", ""occu"": 1}], ""abc"": [0.5, 0.5, 0.5], ""properties"": {""magmom"": -0.0}, ""label"": ""I"", ""xyz"": [2.647115075, 2.647115075, 2.647115075]}, {""species"": [{""element"": ""O"", ""occu"": 1}], ""abc"": [-0.0, -0.0, -0.0], ""properties"": {""magmom"": -0.0}, ""label"": ""O"", ""xyz"": [0.0, 0.0, 0.0]}]}",K3IO,221,1.0291,0.0,0.080149061219427,0.1224178895826479,0.0188074252161833
mp-1227444,"{""@module"": ""pymatgen.core.structure"", ""@class"": ""Structure"", ""charge"": 0, ""lattice"": {""matrix"": [[-2.004951, 2.004951, 6.59658], [2.004951, -2.004951, 6.59658], [2.004951, 2.004951, -6.59658]], ""pbc"": [true, true, true], ""a"": 7.1801479595619755, ""b"": 7.1801479595619755, ""c"": 7.1801479595619755, ""alpha"": 147.57085550021574, ""beta"": 147.57085550021574, ""gamma"": 46.51927458278262, ""volume"": 106.06848147333677}, ""properties"": {}, ""sites"": [{""species"": [{""element"": ""Bi"", ""occu"": 1}], ""abc"": [0.340433, 0.340433, 0.0], ""properties"": {""magmom"": 0.0}, ""label"": ""Bi"", ""xyz"": [0.0, 0.0, 4.49138703828]}, {""species"": [{""element"": ""Pb"", ""occu"": 1}], ""abc"": [0.652173999999999, 0.652173999999999, 0.0], ""properties"": {""magmom"": -0.0}, ""label"": ""Pb"", ""xyz"": [0.0, 0.0, 8.604235929839987]}, {""species"": [{""element"": ""Br"", ""occu"": 1}], ""abc"": [0.9940500000000001, 0.9940500000000001, 0.0], ""properties"": {""magmom"": 0.0}, ""label"": ""Br"", ""xyz"": [0.0, 0.0, 13.114660698000002]}, {""species"": [{""element"": ""O"", ""occu"": 1}], ""abc"": [0.756671, 0.256671, 0.5], ""properties"": {""magmom"": 0.0}, ""label"": ""O"", ""xyz"": [0.0, 2.004951, 3.38630157036]}, {""species"": [{""element"": ""O"", ""occu"": 1}], ""abc"": [0.256671, 0.756671, 0.5], ""properties"": {""magmom"": 0.0}, ""label"": ""O"", ""xyz"": [2.004951, 0.0, 3.38630157036]}]}",BiPbBrO2,107,1.7706,0.0,0.0124612468349524,0.0221797655077043,0.0078888279577374
mp-1220714,"{""@module"": ""pymatgen.core.structure"", ""@class"": ""Structure"", ""charge"": 0, ""lattice"": {""matrix"": [[6.72819992, -2.10852089, 0.00529299], [6.72819992, 2.10852089, 0.00529299], [6.06459509, 0.0, 3.59656252]], ""pbc"": [true, true, true], ""a"": 7.050855446170878, ""b"": 7.050855446170878, ""c"": 7.050856371102793, ""alpha"": 34.800473109318, ""beta"": 34.800473109318, ""gamma"": 34.80046821843516, ""volume"": 101.91026226491014}, ""properties"": {}, ""sites"": [{""species"": [{""element"": ""Na"", ""occu"": 1}], ""abc"": [0.5, 0.5, 0.5], ""properties"": {""magmom"": -0.0}, ""label"": ""Na"", ""xyz"": [9.760497465, 0.0, 1.80357425]}, {""species"": [{""element"": ""La"", ""occu"": 1}], ""abc"": [0.0, 0.0, -0.0], ""properties"": {""magmom"": 0.0}, ""label"": ""La"", ""xyz"": [0.0, 0.0, 0.0]}, {""species"": [{""element"": ""S"", ""occu"": 1}], ""abc"": [0.25436809, 0.25436809, 0.25436809], ""properties"": {""magmom"": -0.0}, ""label"": ""S"", ""xyz"": [4.965518195243783, 0.0, 0.917543474291365]}, {""species"": [{""element"": ""S"", ""occu"": 1}], ""abc"": [0.7456319100000001, 0.7456319100000001, 0.7456319100000001], ""properties"": {""magmom"": -0.0}, ""label"": ""S"", ""xyz"": [14.555476734756217, 0.0, 2.689605025708635]}]}",NaLaS2,166,2.6452,0.0001210025,0.0103444183576328,0.017364852790298,0.0069450624428033
mp-552604,"{""@module"": ""pymatgen.core.structure"", ""@class"": ""Structure"", ""charge"": 0, ""lattice"": {""matrix"": [[3.901229, 0.0, 0.0], [0.0, 3.901229, 0.0], [0.0, 0.0, 9.043417]], ""pbc"": [true, true, true], ""a"": 3.901229, ""b"": 3.901229, ""c"": 9.043417, ""alpha"": 90.0, ""beta"": 90.0, ""gamma"": 90.0, ""volume"": 137.6370782335932}, ""properties"": {}, ""sites"": [{""species"": [{""element"": ""Y"", ""occu"": 1}], ""abc"": [0.0, 0.0, 0.0], ""properties"": {""magmom"": -0.0}, ""label"": ""Y"", ""xyz"": [0.0, 0.0, 0.0]}, {""species"": [{""element"": ""Bi"", ""occu"": 1}], ""abc"": [0.5, 0.5, 0.278627], ""properties"": {""magmom"": 0.0}, ""label"": ""Bi"", ""xyz"": [1.9506145, 1.9506145, 2.519740148459]}, {""species"": [{""element"": ""Bi"", ""occu"": 1}], ""abc"": [0.5, 0.5, 0.721372999999999], ""properties"": {""magmom"": 0.0}, ""label"": ""Bi"", ""xyz"": [1.9506145, 1.9506145, 6.5236768515409915]}, {""species"": [{""element"": ""Cl"", ""occu"": 1}], ""abc"": [0.0, 0.0, 0.5], ""properties"": {""magmom"": 0.0}, ""label"": ""Cl"", ""xyz"": [0.0, 0.0, 4.5217085]}, {""species"": [{""element"": ""O"", ""occu"": 1}], ""abc"": [0.0, 0.5, 0.154091], ""properties"": {""magmom"": 0.0}, ""label"": ""O"", ""xyz"": [0.0, 1.9506145, 1.393509168947]}, {""species"": [{""element"": ""O"", ""occu"": 1}], ""abc"": [0.5, 0.0, 0.845908999999999], ""properties"": {""magmom"": 0.0}, ""label"": ""O"", ""xyz"": [1.9506145, 0.0, 7.649907831052991]}, {""species"": [{""element"": ""O"", ""occu"": 1}], ""abc"": [0.5, 0.0, 0.154091], ""properties"": {""magmom"": 0.0}, ""label"": ""O"", ""xyz"": [1.9506145, 0.0, 1.393509168947]}, {""species"": [{""element"": ""O"", ""occu"": 1}], ""abc"": [0.0, 0.5, 0.845908999999999], ""properties"": {""magmom"": 0.0}, ""label"": ""O"", ""xyz"": [0.0, 1.9506145, 7.649907831052991]}]}",YBi2ClO4,123,1.4168000000000005,0.0,0.0104598727835886,0.0320606296116382,0.0065711478761875
mp-11107,"{""@module"": ""pymatgen.core.structure"", ""@class"": ""Structure"", ""charge"": 0, ""lattice"": {""matrix"": [[4.09548748, -1e-08, -0.0], [-2.04774425, 3.54679711, 0.0], [-0.0, 0.0, 6.29988201]], ""pbc"": [true, true, true], ""a"": 4.09548748, ""b"": 4.09548852432923, ""c"": 6.29988201, ""alpha"": 90.0, ""beta"": 90.0, ""gamma"": 119.99999994338978, ""volume"": 91.51122386046316}, ""properties"": {}, ""sites"": [{""species"": [{""element"": ""Ac"", ""occu"": 1}], ""abc"": [0.666667, 0.333333, 0.75480755], ""properties"": {""magmom"": 0.0}, ""label"": ""Ac"", ""xyz"": [2.04774561774391, 1.1822645144009598, 4.755198505257176]}, {""species"": [{""element"": ""Ac"", ""occu"": 1}], ""abc"": [0.333333, 0.666667, 0.24519245], ""properties"": {""magmom"": 0.0}, ""label"": ""Ac"", ""xyz"": [-2.387743910148288e-06, 2.36453258559904, 1.5446835047428247]}, {""species"": [{""element"": ""O"", ""occu"": 1}], ""abc"": [0.666667, 0.333333, 0.35529608], ""properties"": {""magmom"": -0.0}, ""label"": ""O"", ""xyz"": [2.04774561774391, 1.1822645144009598, 2.238323382615521]}, {""species"": [{""element"": ""O"", ""occu"": 1}], ""abc"": [0.333333, 0.666667, 0.64470392], ""properties"": {""magmom"": -0.0}, ""label"": ""O"", ""xyz"": [-2.387743910148288e-06, 2.36453258559904, 4.061558627384479]}, {""species"": [{""element"": ""O"", ""occu"": 1}], ""abc"": [0.0, -0.0, 0.0], ""properties"": {""magmom"": 0.0}, ""label"": ""O"", ""xyz"": [0.0, 0.0, 0.0]}]}",Ac2O3,164,3.5601,0.0,0.003499280553137,0.0054052200741364,0.0023979511854491
mp-27913,"{""@module"": ""pymatgen.core.structure"", ""@class"": ""Structure"", ""charge"": 0, ""lattice"": {""matrix"": [[2.69318817, -0.012607150000000001, 3.74740626], [1.19776107, 2.41221657, 3.74740626], [-0.02044406, -0.012607150000000001, 4.61474939]], ""pbc"": [true, true, true], ""a"": 4.614810411787928, ""b"": 4.614810292837323, ""c"": 4.61481189566008, ""alpha"": 35.95774475033736, ""beta"": 35.957758171982405, ""gamma"": 35.95773782535869, ""volume"": 30.306070142459568}, ""properties"": {}, ""sites"": [{""species"": [{""element"": ""Co"", ""occu"": 1}], ""abc"": [0.0, -0.0, -0.0], ""properties"": {""magmom"": -0.0}, ""label"": ""Co"", ""xyz"": [0.0, 0.0, 0.0]}, {""species"": [{""element"": ""H"", ""occu"": 1}], ""abc"": [0.5, 0.5, 0.5], ""properties"": {""magmom"": 0.0}, ""label"": ""H"", ""xyz"": [1.9352525900000002, 1.193501135, 6.054780955]}, {""species"": [{""element"": ""O"", ""occu"": 1}], ""abc"": [0.40729251, 0.40729251, 0.40729251], ""properties"": {""magmom"": -0.0}, ""label"": ""O"", ""xyz"": [1.5764277697302018, 0.9722081459239976, 4.932133865324294]}, {""species"": [{""element"": ""O"", ""occu"": 1}], ""abc"": [0.59270749, 0.59270749, 0.59270749], ""properties"": {""magmom"": -0.0}, ""label"": ""O"", ""xyz"": [2.2940774102697983, 1.4147941240760022, 7.177428044675706]}]}",CoHO2,166,0.673,0.0,0.6528358369811621,1.1745667083907274,0.2420318208428964