id,structure_json,formula,spacegroup,bandgap,energy_above_hull,k_1064,k_755,k_1500
mp-863260,"{""@module"": ""pymatgen.core.structure"", ""@class"": ""Structure"", ""charge"": 0, ""lattice"": {""matrix"": [[2.2082622, -3.82496381, 6.9400000000000005e-06], [2.20825718, 3.82496091, -6.46e-06], [1.82e-06, -1.2740000000000002e-05, 7.41514765]], ""pbc"": [true, true, true], ""a"": 4.4166469285881025, ""b"": 4.416641907161063, ""c"": 7.415147650011168, ""alpha"": 90.00016202490858, ""beta"": 89.99981768584894, ""gamma"": 120.00187300571554, ""volume"": 125.264240451145}, ""properties"": {}, ""sites"": [{""species"": [{""element"": ""Sr"", ""occu"": 1}], ""abc"": [-1e-08, 2e-08, 4e-08], ""properties"": {""magmom"": 0.0}, ""label"": ""Sr"", ""xyz"": [2.2082594399999996e-08, 1.147483467e-07, 2.966057074e-07]}, {""species"": [{""element"": ""Mg"", ""occu"": 1}], ""abc"": [0.66666999, 0.3333295, 0.37093538], ""properties"": {""magmom"": 0.0}, ""label"": ""Mg"", ""xyz"": [2.2082600755745796, -1.275021003029958, 2.7505430846900176]}, {""species"": [{""element"": ""Mg"", ""occu"": 1}], ""abc"": [0.33332953, 0.66667063, 0.62906456], ""properties"": {""magmom"": 0.0}, ""label"": ""Mg"", ""xyz"": [2.2082603515328887, 1.2750076962582702, 4.664604600396952]}, {""species"": [{""element"": ""As"", ""occu"": 1}], ""abc"": [0.33332764, 0.666671799999999, 0.26262806], ""properties"": {""magmom"": -0.0}, ""label"": ""As"", ""xyz"": [2.208258094663799, 1.275024069045142, 1.9474238485270525]}, {""species"": [{""element"": ""As"", ""occu"": 1}], ""abc"": [0.66667184, 0.33332805, 0.73737195], ""properties"": {""magmom"": -0.0}, ""label"": ""As"", ""xyz"": [2.2082616258012964, -1.2750382938082279, 5.467724355621784]}]}",Sr(MgAs)2,164,1.3382999999999998,0.0,0.0454038421603295,0.1179145789179522,0.0226960522082999
mp-27832,"{""@module"": ""pymatgen.core.structure"", ""@class"": ""Structure"", ""charge"": 0, ""lattice"": {""matrix"": [[6.13461877, -0.0, 3.54182406], [2.04487292, 5.78377458, 3.54182406], [0.0, 0.0, 7.08364811]], ""pbc"": [true, true, true], ""a"": 7.08364772735285, ""b"": 7.083648164836986, ""c"": 7.08364811, ""alpha"": 60.00000020938301, ""beta"": 59.99999816638774, ""gamma"": 60.000000847548534, ""volume"": 251.3367043780097}, ""properties"": {}, ""sites"": [{""species"": [{""element"": ""Tl"", ""occu"": 1}], ""abc"": [0.25, 0.25, 0.25], ""properties"": {""magmom"": -0.0}, ""label"": ""Tl"", ""xyz"": [2.0448729225, 1.445943645, 3.5418240575000004]}, {""species"": [{""element"": ""Tl"", ""occu"": 1}], ""abc"": [0.75, 0.75, 0.75], ""properties"": {""magmom"": -0.0}, ""label"": ""Tl"", ""xyz"": [6.134618767500001, 4.337830935, 10.6254721725]}, {""species"": [{""element"": ""Sn"", ""occu"": 1}], ""abc"": [0.0, -0.0, -0.0], ""properties"": {""magmom"": 0.0}, ""label"": ""Sn"", ""xyz"": [0.0, 0.0, 0.0]}, {""species"": [{""element"": ""Cl"", ""occu"": 1}], ""abc"": [0.24391335, 0.75608665, 0.75608665], ""properties"": {""magmom"": -0.0}, ""label"": ""Cl"", ""xyz"": [3.0424165309220976, 4.373034746547357, 8.897675829268731]}, {""species"": [{""element"": ""Cl"", ""occu"": 1}], ""abc"": [0.24391335, 0.75608665, 0.24391335], ""properties"": {""magmom"": -0.0}, ""label"": ""Cl"", ""xyz"": [3.0424165309220976, 4.373034746547357, 5.269620400731268]}, {""species"": [{""element"": ""Cl"", ""occu"": 1}], ""abc"": [0.75608665, 0.24391335, 0.75608665], ""properties"": {""magmom"": -0.0}, ""label"": ""Cl"", ""xyz"": [5.137075159077902, 1.410739833452643, 8.897675829268731]}, {""species"": [{""element"": ""Cl"", ""occu"": 1}], ""abc"": [0.75608665, 0.24391335, 0.24391335], ""properties"": {""magmom"": -0.0}, ""label"": ""Cl"", ""xyz"": [5.137075159077902, 1.410739833452643, 5.269620400731268]}, {""species"": [{""element"": ""Cl"", ""occu"": 1}], ""abc"": [0.75608665, 0.75608665, 0.24391335], ""properties"": {""magmom"": -0.0}, ""label"": ""Cl"", ""xyz"": [6.184404470594938, 4.373034746547357, 7.083648117560867]}, {""species"": [{""element"": ""Cl"", ""occu"": 1}], ""abc"": [0.24391335, 0.24391335, 0.75608665], ""properties"": {""magmom"": -0.0}, ""label"": ""Cl"", ""xyz"": [1.9950872194050615, 1.410739833452643, 7.083648112439134]}]}",Tl2SnCl6,225,2.4862,0.0,0.0043761629614182,0.0069377039928081,0.0030414964389613
mp-706,"{""@module"": ""pymatgen.core.structure"", ""@class"": ""Structure"", ""charge"": 0, ""lattice"": {""matrix"": [[3.48581552, -0.0, -1.11221765], [-0.35487412, 3.46770409, -1.11221765], [0.025540550000000002, 0.02828777, 6.09862993]], ""pbc"": [true, true, true], ""a"": 3.6589531208317485, ""b"": 3.6589527733792937, ""c"": 6.0987490144059615, ""alpha"": 107.45615918002711, ""beta"": 107.4561582495197, ""gamma"": 89.99998978946898, ""volume"": 73.93821922628089}, ""properties"": {}, ""sites"": [{""species"": [{""element"": ""Hg"", ""occu"": 1}], ""abc"": [0.88451595, 0.88451595, 0.76903191], ""properties"": {""magmom"": 0.0}, ""label"": ""Hg"", ""xyz"": [2.789009104764281, 3.0889937752779764, 2.7224925208580313]}, {""species"": [{""element"": ""Hg"", ""occu"": 1}], ""abc"": [0.11548405, 0.11548405, 0.23096809000000001], ""properties"": {""magmom"": 0.0}, ""label"": ""Hg"", ""xyz"": [0.36747284523571955, 0.4069980847220238, 1.1517021091419688]}, {""species"": [{""element"": ""F"", ""occu"": 1}], ""abc"": [0.6881513, 0.6881513, 0.376303599999999], ""properties"": {""magmom"": 0.0}, ""label"": ""F"", ""xyz"": [2.1641723955448, 2.3969498672357887, 0.7641883542658519]}, {""species"": [{""element"": ""F"", ""occu"": 1}], ""abc"": [0.3118487, 0.3118487, 0.623696399999999], ""properties"": {""magmom"": 0.0}, ""label"": ""F"", ""xyz"": [0.9923095544552001, 1.099041992764211, 3.1100062757341362]}]}",HgF,139,1.8601,0.0,0.0105792187047625,0.0187174268258496,0.0069120080086394
mp-23162,"{""@module"": ""pymatgen.core.structure"", ""@class"": ""Structure"", ""charge"": 0, ""lattice"": {""matrix"": [[3.33479018, 0.02328821, 6.08967896], [1.57627907, 2.93882811, 6.08967896], [0.03861308, 0.02328821, 6.94287578]], ""pbc"": [true, true, true], ""a"": 6.943022232516335, ""b"": 6.943022123147305, ""c"": 6.943022209901297, ""alpha"": 28.386901742984694, ""beta"": 28.38689385120955, ""gamma"": 28.386901462696848, ""volume"": 66.85297123118846}, ""properties"": {}, ""sites"": [{""species"": [{""element"": ""Zr"", ""occu"": 1}], ""abc"": [7.211000000000001e-05, 7.211000000000001e-05, 7.211000000000001e-05], ""properties"": {""magmom"": 0.0}, ""label"": ""Zr"", ""xyz"": [0.00035692159281630007, 0.00021527752065830008, 0.0013789042721070002]}, {""species"": [{""element"": ""Cl"", ""occu"": 1}], ""abc"": [0.41911788, 0.41911788, 0.41911788], ""properties"": {""magmom"": -0.0}, ""label"": ""Cl"", ""xyz"": [2.07450036482306, 1.2512364175559962, 8.014470049208555]}, {""species"": [{""element"": ""Cl"", ""occu"": 1}], ""abc"": [0.24770901, 0.24770901, 0.24770901], ""properties"": {""magmom"": -0.0}, ""label"": ""Cl"", ""xyz"": [1.2260809097787932, 0.7395116005758154, 4.736749578815637]}]}",ZrCl2,160,1.0126999999999995,0.0,0.1147739190363584,1.1800677032928075,0.0512985702019624
mp-30250,"{""@module"": ""pymatgen.core.structure"", ""@class"": ""Structure"", ""charge"": 0, ""lattice"": {""matrix"": [[3.50492912, -1e-08, -0.0], [-1.75246557, 3.03535889, 0.0], [0.0, -0.0, 12.392503080000001]], ""pbc"": [true, true, true], ""a"": 3.50492912, ""b"": 3.5049306933429447, ""c"": 12.392503080000001, ""alpha"": 90.0, ""beta"": 90.0, ""gamma"": 120.0000043790466, ""volume"": 131.84034243067956}, ""properties"": {}, ""sites"": [{""species"": [{""element"": ""Y"", ""occu"": 1}], ""abc"": [0.0, -0.0, -0.0], ""properties"": {""magmom"": -0.0}, ""label"": ""Y"", ""xyz"": [0.0, 0.0, 0.0]}, {""species"": [{""element"": ""Y"", ""occu"": 1}], ""abc"": [0.0, -0.0, 0.5], ""properties"": {""magmom"": -0.0}, ""label"": ""Y"", ""xyz"": [0.0, 0.0, 6.1962515400000004]}, {""species"": [{""element"": ""Ag"", ""occu"": 1}], ""abc"": [0.333333, 0.666667, 0.25], ""properties"": {""magmom"": -0.0}, ""label"": ""Ag"", ""xyz"": [-2.4257982300657233e-06, 2.0235736017862997, 3.0981257700000002]}, {""species"": [{""element"": ""Ag"", ""occu"": 1}], ""abc"": [0.666667, 0.333333, 0.75], ""properties"": {""magmom"": -0.0}, ""label"": ""Ag"", ""xyz"": [1.75246597579823, 1.0117852782136998, 9.294377310000002]}, {""species"": [{""element"": ""O"", ""occu"": 1}], ""abc"": [0.333333, 0.666667, 0.08405777], ""properties"": {""magmom"": 0.0}, ""label"": ""O"", ""xyz"": [-2.4257982300657233e-06, 2.0235736017862997, 1.0416861736229317]}, {""species"": [{""element"": ""O"", ""occu"": 1}], ""abc"": [0.666667, 0.333333, 0.58405777], ""properties"": {""magmom"": 0.0}, ""label"": ""O"", ""xyz"": [1.75246597579823, 1.0117852782136998, 7.237937713622933]}, {""species"": [{""element"": ""O"", ""occu"": 1}], ""abc"": [0.666667, 0.333333, 0.91594223], ""properties"": {""magmom"": 0.0}, ""label"": ""O"", ""xyz"": [1.75246597579823, 1.0117852782136998, 11.35081690637707]}, {""species"": [{""element"": ""O"", ""occu"": 1}], ""abc"": [0.333333, 0.666667, 0.41594223], ""properties"": {""magmom"": 0.0}, ""label"": ""O"", ""xyz"": [-2.4257982300657233e-06, 2.0235736017862997, 5.154565366377069]}]}",YAgO2,194,2.4902,0.0,0.0084180341238863,0.0140092165419479,0.0057677019017825
mp-1218382,"{""@module"": ""pymatgen.core.structure"", ""@class"": ""Structure"", ""charge"": 0, ""lattice"": {""matrix"": [[-2.51502206, 2.51502206, 8.82608686], [2.51502206, -2.51502206, 8.82608686], [2.51502206, 2.51502206, -8.82608686]], ""pbc"": [true, true, true], ""a"": 9.515801657497803, ""b"": 9.515801657497803, ""c"": 9.515801657497803, ""alpha"": 149.34932823312258, ""beta"": 149.34932823312258, ""gamma"": 43.89736504953807, ""volume"": 223.31185848729442}, ""properties"": {}, ""sites"": [{""species"": [{""element"": ""Sr"", ""occu"": 1}], ""abc"": [0.83496841, 0.83496841, -0.0], ""properties"": {""magmom"": -0.0}, ""label"": ""Sr"", ""xyz"": [0.0, 0.0, 14.739007424032186]}, {""species"": [{""element"": ""Sr"", ""occu"": 1}], ""abc"": [0.17023005, 0.17023005, -0.0], ""properties"": {""magmom"": -0.0}, ""label"": ""Sr"", ""xyz"": [0.0, 0.0, 3.004930414964286]}, {""species"": [{""element"": ""Sr"", ""occu"": 1}], ""abc"": [0.9980805500000001, 0.49808055, 0.5], ""properties"": {""magmom"": -0.0}, ""label"": ""Sr"", ""xyz"": [-2.220446049250313e-16, 2.5150220600000006, 8.792204395153146]}, {""species"": [{""element"": ""Sr"", ""occu"": 1}], ""abc"": [0.49808055, 0.9980805500000001, 0.5], ""properties"": {""magmom"": -0.0}, ""label"": ""Sr"", ""xyz"": [2.5150220600000006, -2.220446049250313e-16, 8.792204395153146]}, {""species"": [{""element"": ""Bi"", ""occu"": 1}], ""abc"": [0.63778488, 0.63778488, 0.0], ""properties"": {""magmom"": -0.0}, ""label"": ""Bi"", ""xyz"": [0.0, 0.0, 11.258289497749354]}, {""species"": [{""element"": ""Bi"", ""occu"": 1}], ""abc"": [0.36025977000000003, 0.36025977000000003, -0.0], ""properties"": {""magmom"": 0.0}, ""label"": ""Bi"", ""xyz"": [0.0, 0.0, 6.359368044367245]}, {""species"": [{""element"": ""O"", ""occu"": 1}], ""abc"": [0.99019579, 0.99019579, 0.0], ""properties"": {""magmom"": 0.0}, ""label"": ""O"", ""xyz"": [0.0, 0.0, 17.47910810189264]}]}",Sr4Bi2O,107,0.8893,0.0,0.8381038424821913,0.8262834897290098,0.2797474271999186
mp-1208162,"{""@module"": ""pymatgen.core.structure"", ""@class"": ""Structure"", ""charge"": 0, ""lattice"": {""matrix"": [[2.91275795, -5.04504374, 0.0], [2.91275795, 5.04504374, -0.0], [0.0, -0.0, 4.7974345]], ""pbc"": [true, true, true], ""a"": 5.825515017043676, ""b"": 5.825515017043676, ""c"": 4.7974345, ""alpha"": 90.0, ""beta"": 90.0, ""gamma"": 119.99998997240219, ""volume"": 140.99651611295002}, ""properties"": {}, ""sites"": [{""species"": [{""element"": ""Tl"", ""occu"": 1}], ""abc"": [0.333333, 0.666667, 0.30667819], ""properties"": {""magmom"": 0.0}, ""label"": ""Tl"", ""xyz"": [2.91275795, 1.68168461002916, 1.471268529103555]}, {""species"": [{""element"": ""Tl"", ""occu"": 1}], ""abc"": [0.666667, 0.333333, 0.69332181], ""properties"": {""magmom"": 0.0}, ""label"": ""Tl"", ""xyz"": [2.91275795, -1.68168461002916, 3.326165970896445]}, {""species"": [{""element"": ""Ge"", ""occu"": 1}], ""abc"": [-0.0, -0.0, -0.0], ""properties"": {""magmom"": -0.0}, ""label"": ""Ge"", ""xyz"": [0.0, 0.0, 0.0]}, {""species"": [{""element"": ""F"", ""occu"": 1}], ""abc"": [0.85143874, 0.14856126, 0.21318187], ""properties"": {""magmom"": 0.0}, ""label"": ""F"", ""xyz"": [2.91275795, -3.5460476304609747, 1.0227260579125148]}, {""species"": [{""element"": ""F"", ""occu"": 1}], ""abc"": [0.14856126, 0.85143874, 0.78681813], ""properties"": {""magmom"": 0.0}, ""label"": ""F"", ""xyz"": [2.91275795, 3.5460476304609747, 3.774708442087485]}, {""species"": [{""element"": ""F"", ""occu"": 1}], ""abc"": [0.85143874, 0.70287748, 0.21318187], ""properties"": {""magmom"": 0.0}, ""label"": ""F"", ""xyz"": [4.527346926618949, -0.749498054769512, 1.0227260579125148]}, {""species"": [{""element"": ""F"", ""occu"": 1}], ""abc"": [0.14856126, 0.29712252, 0.78681813], ""properties"": {""magmom"": 0.0}, ""label"": ""F"", ""xyz"": [1.298168973381051, 0.7494980547695124, 3.774708442087485]}, {""species"": [{""element"": ""F"", ""occu"": 1}], ""abc"": [0.29712252, 0.14856126, 0.21318187], ""properties"": {""magmom"": 0.0}, ""label"": ""F"", ""xyz"": [1.298168973381051, -0.7494980547695124, 1.0227260579125148]}, {""species"": [{""element"": ""F"", ""occu"": 1}], ""abc"": [0.70287748, 0.85143874, 0.78681813], ""properties"": {""magmom"": 0.0}, ""label"": ""F"", ""xyz"": [4.527346926618949, 0.749498054769512, 3.774708442087485]}]}",Tl2GeF6,164,4.8419,0.0,0.0022466172520327,0.0034368294211422,0.0015348998758818
mp-754065,"{""@module"": ""pymatgen.core.structure"", ""@class"": ""Structure"", ""charge"": 0, ""lattice"": {""matrix"": [[5.29776257, -0.0, -3.99e-06], [-2.6488812900000003, 4.58799666, -3.99e-06], [2e-06, 3e-06, 4.92415045]], ""pbc"": [true, true, true], ""a"": 5.2977625700015025, ""b"": 5.297762305039661, ""c"": 4.92415045000132, ""alpha"": 90.00002455752865, ""beta"": 90.00001988087362, ""gamma"": 120.00000171683173, ""volume"": 119.68697684837183}, ""properties"": {}, ""sites"": [{""species"": [{""element"": ""Hg"", ""occu"": 1}], ""abc"": [0.0, 0.0, -0.0], ""properties"": {""magmom"": 0.0}, ""label"": ""Hg"", ""xyz"": [0.0, 0.0, 0.0]}, {""species"": [{""element"": ""Sb"", ""occu"": 1}], ""abc"": [0.333333, 0.666667, 0.5], ""properties"": {""magmom"": 0.0}, ""label"": ""Sb"", ""xyz"": [-1.652214620368909e-06, 3.05866746933222, 2.462071235]}, {""species"": [{""element"": ""Sb"", ""occu"": 1}], ""abc"": [0.666667, 0.333333, 0.5], ""properties"": {""magmom"": 0.0}, ""label"": ""Sb"", ""xyz"": [2.64888493221462, 1.52933219066778, 2.462071235]}, {""species"": [{""element"": ""O"", ""occu"": 1}], ""abc"": [-0.0, 0.62883504, 0.72003217], ""properties"": {""magmom"": -0.0}, ""label"": ""O"", ""xyz"": [-1.6657079318880619, 2.8850952233074767, 3.545544224868167]}, {""species"": [{""element"": ""O"", ""occu"": 1}], ""abc"": [0.0, 0.37116496, 0.27996783000000003], ""properties"": {""magmom"": -0.0}, ""label"": ""O"", ""xyz"": [-0.9831713581119386, 1.7029044366925237, 1.3786022351318332]}, {""species"": [{""element"": ""O"", ""occu"": 1}], ""abc"": [0.37116196, 0.37116196, 0.72003117], ""properties"": {""magmom"": -0.0}, ""label"": ""O"", ""xyz"": [0.9831654077544487, 1.7028919928925637, 3.545538847897086]}, {""species"": [{""element"": ""O"", ""occu"": 1}], ""abc"": [0.62883804, 0.62883804, 0.27996883], ""properties"": {""magmom"": -0.0}, ""label"": ""O"", ""xyz"": [1.6657178722455508, 2.8851076671074365, 1.3786036221029143]}, {""species"": [{""element"": ""O"", ""occu"": 1}], ""abc"": [0.37116496, 0.0, 0.27996783000000003], ""properties"": {""magmom"": -0.0}, ""label"": ""O"", ""xyz"": [1.966344392319207, 8.399034900000001e-07, 1.3786022351318332]}, {""species"": [{""element"": ""O"", ""occu"": 1}], ""abc"": [0.62883504, -0.0, 0.72003217], ""properties"": {""magmom"": -0.0}, ""label"": ""O"", ""xyz"": [3.331420177680793, 2.16009651e-06, 3.545544224868167]}]}",Hg(SbO3)2,162,0.5234000000000001,0.0,0.0678255943950029,0.150383951851342,0.0188591094823693
mp-971787,"{""@module"": ""pymatgen.core.structure"", ""@class"": ""Structure"", ""charge"": 0, ""lattice"": {""matrix"": [[3.82343967, -2e-08, -0.0], [-1.91172087, 3.31146401, -0.00016409], [-0.0, -0.00016594, 6.41284586]], ""pbc"": [true, true, true], ""a"": 3.82343967, ""b"": 3.8236723972176754, ""c"": 6.412845862146947, ""alpha"": 90.00374279679939, ""beta"": 89.99999999999226, ""gamma"": 119.99800483518051, ""volume"": 81.1942137474866}, ""properties"": {}, ""sites"": [{""species"": [{""element"": ""V"", ""occu"": 1}], ""abc"": [0.999965999999999, 0.0, -0.0], ""properties"": {""magmom"": 2.6790000000000003}, ""label"": ""V"", ""xyz"": [3.823309673051216, -1.9999319999999982e-08, 0.0]}, {""species"": [{""element"": ""Br"", ""occu"": 1}], ""abc"": [0.33329791000000003, 0.66666581, 0.22859643000000002], ""properties"": {""magmom"": -0.016}, ""label"": ""Br"", ""xyz"": [-0.00013449127036491149, 2.207601896554946, 1.465844276543517]}, {""species"": [{""element"": ""Br"", ""occu"": 1}], ""abc"": [0.66663309, 0.33333319, 0.7714045700000001], ""properties"": {""magmom"": -0.016}, ""label"": ""Br"", ""xyz"": [1.9115913856540052, 1.1036928418164842, 4.946843906466434]}]}",VBr2,164,1.1355,0.0,0.1026292833882601,0.3612090519575933,0.0210401155882848
mp-20374,"{""@module"": ""pymatgen.core.structure"", ""@class"": ""Structure"", ""charge"": 0, ""lattice"": {""matrix"": [[-1.856456999999999, -3.215477, 0.0], [-1.856456999999999, 3.215477, 0.0], [0.0, 0.0, -8.180967]], ""pbc"": [true, true, true], ""a"": 3.712913267284599, ""b"": 3.712913267284599, ""c"": 8.180967, ""alpha"": 90.0, ""beta"": 90.0, ""gamma"": 119.9999869439282, ""volume"": 97.67084349193416}, ""properties"": {}, ""sites"": [{""species"": [{""element"": ""Ho"", ""occu"": 1}], ""abc"": [0.666667, 0.333333, 0.176572999999999], ""properties"": {""magmom"": -0.0}, ""label"": ""Ho"", ""xyz"": [-1.856456999999999, -1.0718278103180001, -1.444537886090992]}, {""species"": [{""element"": ""Ho"", ""occu"": 1}], ""abc"": [0.333333, 0.666667, 0.823426999999999], ""properties"": {""magmom"": -0.0}, ""label"": ""Ho"", ""xyz"": [-1.856456999999999, 1.0718278103180001, -6.736429113908993]}, {""species"": [{""element"": ""C"", ""occu"": 1}], ""abc"": [0.0, 0.0, 0.5], ""properties"": {""magmom"": 0.0}, ""label"": ""C"", ""xyz"": [0.0, 0.0, -4.0904835]}, {""species"": [{""element"": ""N"", ""occu"": 1}], ""abc"": [0.0, 0.0, 0.34890000000000004], ""properties"": {""magmom"": 0.0}, ""label"": ""N"", ""xyz"": [0.0, 0.0, -2.854339386300001]}, {""species"": [{""element"": ""N"", ""occu"": 1}], ""abc"": [0.0, 0.0, 0.6511], ""properties"": {""magmom"": 0.0}, ""label"": ""N"", ""xyz"": [0.0, 0.0, -5.3266276137]}, {""species"": [{""element"": ""O"", ""occu"": 1}], ""abc"": [0.333333, 0.666667, 0.102799], ""properties"": {""magmom"": -0.0}, ""label"": ""O"", ""xyz"": [-1.856456999999999, 1.0718278103180001, -0.8409952266330001]}, {""species"": [{""element"": ""O"", ""occu"": 1}], ""abc"": [0.666667, 0.333333, 0.897200999999999], ""properties"": {""magmom"": -0.0}, ""label"": ""O"", ""xyz"": [-1.856456999999999, -1.0718278103180001, -7.339971773366993]}]}",Ho2C(NO)2,164,4.0011,0.0,0.0033089011526567,0.0048570723595803,0.002234951786362