id,structure_json,formula,spacegroup,bandgap,energy_above_hull,k_1064,k_755,k_1500
mp-697133,"{""@module"": ""pymatgen.core.structure"", ""@class"": ""Structure"", ""charge"": 0, ""lattice"": {""matrix"": [[-2.30155471, 2.30155471, 7.7538845], [2.30155471, -2.30155471, 7.7538845], [2.30155471, 2.30155471, -7.7538845]], ""pbc"": [true, true, true], ""a"": 8.409342007885433, ""b"": 8.409342007885433, ""c"": 8.409342007885433, ""alpha"": 148.23204929185175, ""beta"": 148.23204929185175, ""gamma"": 45.542930687797046, ""volume"": 164.2940837569623}, ""properties"": {}, ""sites"": [{""species"": [{""element"": ""Cs"", ""occu"": 1}], ""abc"": [0.64805889, 0.64805889, -0.0], ""properties"": {""magmom"": -0.0}, ""label"": ""Cs"", ""xyz"": [0.0, 0.0, 10.04994756451641]}, {""species"": [{""element"": ""Cs"", ""occu"": 1}], ""abc"": [0.35194211000000003, 0.35194211000000003, 0.0], ""properties"": {""magmom"": -0.0}, ""label"": ""Cs"", ""xyz"": [0.0, 0.0, 5.45783694325259]}, {""species"": [{""element"": ""Ca"", ""occu"": 1}], ""abc"": [-0.0, -0.0, -0.0], ""properties"": {""magmom"": -0.0}, ""label"": ""Ca"", ""xyz"": [0.0, 0.0, 0.0]}, {""species"": [{""element"": ""H"", ""occu"": 1}], ""abc"": [0.85147726, 0.85147726, -0.0], ""properties"": {""magmom"": 0.0}, ""label"": ""H"", ""xyz"": [0.0, 0.0, 13.20451265683294]}, {""species"": [{""element"": ""H"", ""occu"": 1}], ""abc"": [0.14852274000000001, 0.14852274000000001, 0.0], ""properties"": {""magmom"": 0.0}, ""label"": ""H"", ""xyz"": [0.0, 0.0, 2.3032563431670603]}, {""species"": [{""element"": ""H"", ""occu"": 1}], ""abc"": [-0.0, 0.5, 0.5], ""properties"": {""magmom"": -0.0}, ""label"": ""H"", ""xyz"": [2.30155471, 0.0, 0.0]}, {""species"": [{""element"": ""H"", ""occu"": 1}], ""abc"": [0.5, -0.0, 0.5], ""properties"": {""magmom"": -0.0}, ""label"": ""H"", ""xyz"": [0.0, 2.30155471, 0.0]}]}",Cs2CaH4,139,3.009,0.0,0.0046542670716443,0.0075529524568945,0.0031008608937999
mp-947,"{""@module"": ""pymatgen.core.structure"", ""@class"": ""Structure"", ""charge"": 0, ""lattice"": {""matrix"": [[5.27398218, -0.0, -0.0], [-0.0, 5.27398218, 0.0], [0.0, -0.0, 5.27398218]], ""pbc"": [true, true, true], ""a"": 5.27398218, ""b"": 5.27398218, ""c"": 5.27398218, ""alpha"": 90.0, ""beta"": 90.0, ""gamma"": 90.0, ""volume"": 146.69522383506134}, ""properties"": {}, ""sites"": [{""species"": [{""element"": ""Au"", ""occu"": 1}], ""abc"": [0.5, 0.5, 0.0], ""properties"": {""magmom"": 0.0}, ""label"": ""Au"", ""xyz"": [2.63699109, 2.63699109, 0.0]}, {""species"": [{""element"": ""Au"", ""occu"": 1}], ""abc"": [0.0, 0.5, 0.5], ""properties"": {""magmom"": 0.0}, ""label"": ""Au"", ""xyz"": [0.0, 2.63699109, 2.63699109]}, {""species"": [{""element"": ""Au"", ""occu"": 1}], ""abc"": [0.5, -0.0, 0.5], ""properties"": {""magmom"": 0.0}, ""label"": ""Au"", ""xyz"": [2.63699109, 0.0, 2.63699109]}, {""species"": [{""element"": ""Au"", ""occu"": 1}], ""abc"": [0.0, 0.0, -0.0], ""properties"": {""magmom"": 0.0}, ""label"": ""Au"", ""xyz"": [0.0, 0.0, 0.0]}, {""species"": [{""element"": ""S"", ""occu"": 1}], ""abc"": [0.25, 0.25, 0.25], ""properties"": {""magmom"": 0.0}, ""label"": ""S"", ""xyz"": [1.318495545, 1.318495545, 1.318495545]}, {""species"": [{""element"": ""S"", ""occu"": 1}], ""abc"": [0.75, 0.75, 0.75], ""properties"": {""magmom"": 0.0}, ""label"": ""S"", ""xyz"": [3.9554866349999998, 3.9554866349999998, 3.9554866349999998]}]}",Au2S,224,1.9481,0.0,0.0174085149993496,0.0323406902085672,0.0109985859025391
mp-19378,"{""@module"": ""pymatgen.core.structure"", ""@class"": ""Structure"", ""charge"": 0, ""lattice"": {""matrix"": [[2.91174809, 0.00085857, 5.72510644], [1.372908499999999, 2.56776019, 5.72510643], [0.00143309, 0.00085857, 6.42301591]], ""pbc"": [true, true, true], ""a"": 6.423014979438439, ""b"": 6.423014384037174, ""c"": 6.423016127256923, ""alpha"": 26.944772419736196, ""beta"": 26.944778285976454, ""gamma"": 26.94478229171887, ""volume"": 47.9865802322794}, ""properties"": {}, ""sites"": [{""species"": [{""element"": ""Cr"", ""occu"": 1}], ""abc"": [0.5, 0.5, 0.5], ""properties"": {""magmom"": 2.874}, ""label"": ""Cr"", ""xyz"": [2.1430448399999995, 1.2847386650000001, 8.93661439]}, {""species"": [{""element"": ""Ag"", ""occu"": 1}], ""abc"": [-0.0, -0.0, -0.0], ""properties"": {""magmom"": 0.034}, ""label"": ""Ag"", ""xyz"": [0.0, 0.0, 0.0]}, {""species"": [{""element"": ""O"", ""occu"": 1}], ""abc"": [0.88694043, 0.88694043, 0.88694043], ""properties"": {""magmom"": -0.003}, ""label"": ""O"", ""xyz"": [3.801506223797762, 2.2789733279454523, 15.852489219621576]}, {""species"": [{""element"": ""O"", ""occu"": 1}], ""abc"": [0.11305957, 0.11305957, 0.11305957], ""properties"": {""magmom"": -0.003}, ""label"": ""O"", ""xyz"": [0.4845834562022375, 0.290504002054548, 2.020739560378425]}]}",CrAgO2,166,0.3526999999999995,0.0,0.5121711438874192,0.8501115368154103,0.3026185893997392
mp-7233,"{""@module"": ""pymatgen.core.structure"", ""@class"": ""Structure"", ""charge"": 0, ""lattice"": {""matrix"": [[4.08729761, -1e-08, -0.0], [-2.04364932, 3.53970378, 0.0], [0.0, 0.0, 7.16384495]], ""pbc"": [true, true, true], ""a"": 4.08729761, ""b"": 4.087298055351818, ""c"": 7.16384495, ""alpha"": 90.0, ""beta"": 90.0, ""gamma"": 120.00000487191399, ""volume"": 103.64523915760147}, ""properties"": {}, ""sites"": [{""species"": [{""element"": ""La"", ""occu"": 1}], ""abc"": [0.666667, 0.333333, 0.71158045], ""properties"": {""magmom"": 0.0}, ""label"": ""La"", ""xyz"": [2.04365067698231, 1.17990007343207, 5.097652013251228]}, {""species"": [{""element"": ""La"", ""occu"": 1}], ""abc"": [0.333333, 0.666667, 0.28841955], ""properties"": {""magmom"": 0.0}, ""label"": ""La"", ""xyz"": [-2.386982310031982e-06, 2.35980369656793, 2.0661929367487724]}, {""species"": [{""element"": ""Se"", ""occu"": 1}], ""abc"": [0.0, -0.0, -0.0], ""properties"": {""magmom"": -0.0}, ""label"": ""Se"", ""xyz"": [0.0, 0.0, 0.0]}, {""species"": [{""element"": ""O"", ""occu"": 1}], ""abc"": [0.666667, 0.333333, 0.37596082000000003], ""properties"": {""magmom"": -0.0}, ""label"": ""O"", ""xyz"": [2.04365067698231, 1.17990007343207, 2.693325021754859]}, {""species"": [{""element"": ""O"", ""occu"": 1}], ""abc"": [0.333333, 0.666667, 0.62403918], ""properties"": {""magmom"": -0.0}, ""label"": ""O"", ""xyz"": [-2.386982310031982e-06, 2.35980369656793, 4.470519928245141]}]}",La2SeO2,164,2.4201999999999995,0.0,0.0078971130832115,0.0130392108151919,0.0052243376865736
mp-1006885,"{""@module"": ""pymatgen.core.structure"", ""@class"": ""Structure"", ""charge"": 0, ""lattice"": {""matrix"": [[-2.09465349, -3.62804686, 0.0], [-4.18930697, 0.0, 0.0], [-2.09465349, -1.20934827, -7.32985586]], ""pbc"": [true, true, true], ""a"": 4.189307491880375, ""b"": 4.18930697, ""c"": 7.718606312651107, ""alpha"": 74.25376743543448, ""beta"": 74.25377134158904, ""gamma"": 60.00000404192488, ""volume"": 111.40649386181222}, ""properties"": {}, ""sites"": [{""species"": [{""element"": ""K"", ""occu"": 1}], ""abc"": [0.5, 0.5, 0.5], ""properties"": {""magmom"": 0.0}, ""label"": ""K"", ""xyz"": [-4.189306974999999, -2.418697565, -3.66492793]}, {""species"": [{""element"": ""Nd"", ""occu"": 1}], ""abc"": [-0.0, -0.0, 0.0], ""properties"": {""magmom"": 0.0}, ""label"": ""Nd"", ""xyz"": [0.0, 0.0, 0.0]}, {""species"": [{""element"": ""S"", ""occu"": 1}], ""abc"": [0.7365485900000001, 0.7365485900000001, 0.79035722], ""properties"": {""magmom"": -0.0}, ""label"": ""S"", ""xyz"": [-6.283966725648448, -3.6280499358759366, -5.793204500510309]}, {""species"": [{""element"": ""S"", ""occu"": 1}], ""abc"": [0.26345141, 0.26345141, 0.20964278], ""properties"": {""magmom"": -0.0}, ""label"": ""S"", ""xyz"": [-2.0946472243515504, -1.2093451941240632, -1.536651359489691]}]}",KNdS2,166,2.2987,0.0,0.0109222191079765,0.0185848139820409,0.0069390969916056
mp-24204,"{""@module"": ""pymatgen.core.structure"", ""@class"": ""Structure"", ""charge"": 0, ""lattice"": {""matrix"": [[4.02334212, 0.0, -0.0], [0.0, 4.02334212, -0.0], [-0.0, 0.0, 9.34312645]], ""pbc"": [true, true, true], ""a"": 4.02334212, ""b"": 4.02334212, ""c"": 9.34312645, ""alpha"": 90.0, ""beta"": 90.0, ""gamma"": 90.0, ""volume"": 151.23982087527645}, ""properties"": {}, ""sites"": [{""species"": [{""element"": ""Ca"", ""occu"": 1}], ""abc"": [-0.0, 0.5, 0.13019281], ""properties"": {""magmom"": -0.0}, ""label"": ""Ca"", ""xyz"": [0.0, 2.01167106, 1.2164078867108243]}, {""species"": [{""element"": ""Ca"", ""occu"": 1}], ""abc"": [0.5, 0.0, 0.8698071900000001], ""properties"": {""magmom"": -0.0}, ""label"": ""Ca"", ""xyz"": [2.01167106, 0.0, 8.126718563289176]}, {""species"": [{""element"": ""H"", ""occu"": 1}], ""abc"": [0.5, 0.5, 0.0], ""properties"": {""magmom"": -0.0}, ""label"": ""H"", ""xyz"": [2.01167106, 2.01167106, 0.0]}, {""species"": [{""element"": ""H"", ""occu"": 1}], ""abc"": [-0.0, 0.0, 0.0], ""properties"": {""magmom"": -0.0}, ""label"": ""H"", ""xyz"": [0.0, 0.0, 0.0]}, {""species"": [{""element"": ""I"", ""occu"": 1}], ""abc"": [0.0, 0.5, 0.69979029], ""properties"": {""magmom"": 0.0}, ""label"": ""I"", ""xyz"": [0.0, 2.01167106, 6.538229167952171]}, {""species"": [{""element"": ""I"", ""occu"": 1}], ""abc"": [0.5, -0.0, 0.30020971], ""properties"": {""magmom"": 0.0}, ""label"": ""I"", ""xyz"": [2.01167106, 0.0, 2.8048972820478295]}]}",CaHI,129,3.5805000000000007,0.0,0.0056961208993563,0.0087581723135034,0.0039286548405671
mp-7976,"{""@module"": ""pymatgen.core.structure"", ""@class"": ""Structure"", ""charge"": 0, ""lattice"": {""matrix"": [[6.59947874, -1.77136543, -0.00018628], [6.59947874, 1.77136543, -0.00018628], [6.1241133, 0.0, 3.03085873]], ""pbc"": [true, true, true], ""a"": 6.833070697791097, ""b"": 6.833070697791097, ""c"": 6.83307166305565, ""alpha"": 30.049248512653243, ""beta"": 30.049248512653243, ""gamma"": 30.049251059573052, ""volume"": 70.8660550922345}, ""properties"": {}, ""sites"": [{""species"": [{""element"": ""Rb"", ""occu"": 1}], ""abc"": [0.0, 0.0, 0.0], ""properties"": {""magmom"": 0.001}, ""label"": ""Rb"", ""xyz"": [0.0, 0.0, 0.0]}, {""species"": [{""element"": ""Gd"", ""occu"": 1}], ""abc"": [0.5, 0.5, 0.5], ""properties"": {""magmom"": 6.874}, ""label"": ""Gd"", ""xyz"": [9.661535390000001, 0.0, 1.5152430849999998]}, {""species"": [{""element"": ""O"", ""occu"": 1}], ""abc"": [0.77382242, 0.77382242, 0.77382242], ""properties"": {""magmom"": -0.023}, ""label"": ""O"", ""xyz"": [14.952625392810889, 0.0, 2.3450581418459313]}, {""species"": [{""element"": ""O"", ""occu"": 1}], ""abc"": [0.22617758000000002, 0.22617758000000002, 0.22617758000000002], ""properties"": {""magmom"": -0.023}, ""label"": ""O"", ""xyz"": [4.370445387189113, 0.0, 0.6854280281540687]}]}",RbGdO2,166,2.998,0.0,0.0040283944780234,0.0062042275620688,0.0026603348033527
mp-9263,"{""@module"": ""pymatgen.core.structure"", ""@class"": ""Structure"", ""charge"": 0, ""lattice"": {""matrix"": [[8.26091511, -2.22730143, -0.00893932], [8.26091511, 2.22730143, -0.00893932], [7.66451567, -0.0, 3.80248104]], ""pbc"": [true, true, true], ""a"": 8.555914330224935, ""b"": 8.555914330224935, ""c"": 8.555913891293848, ""alpha"": 30.17846207047833, ""beta"": 30.17846207047833, ""gamma"": 30.17845935321157, ""volume"": 140.23307471677217}, ""properties"": {}, ""sites"": [{""species"": [{""element"": ""K"", ""occu"": 1}], ""abc"": [0.5, 0.5, 0.5], ""properties"": {""magmom"": 0.0}, ""label"": ""K"", ""xyz"": [12.093172945, 0.0, 1.8923012]}, {""species"": [{""element"": ""Er"", ""occu"": 1}], ""abc"": [0.0, 0.0, -0.0], ""properties"": {""magmom"": -0.0}, ""label"": ""Er"", ""xyz"": [0.0, 0.0, 0.0]}, {""species"": [{""element"": ""Te"", ""occu"": 1}], ""abc"": [0.26407543, 0.26407543, 0.26407543], ""properties"": {""magmom"": 0.0}, ""label"": ""Te"", ""xyz"": [6.387019691030482, 0.0, 0.999420506159032]}, {""species"": [{""element"": ""Te"", ""occu"": 1}], ""abc"": [0.73592457, 0.73592457, 0.73592457], ""properties"": {""magmom"": 0.0}, ""label"": ""Te"", ""xyz"": [17.799326198969517, 0.0, 2.7851818938409676]}]}",KErTe2,166,1.3432,0.0,0.0284831902210283,0.0662361940587444,0.0173519324556664
mp-7483,"{""@module"": ""pymatgen.core.structure"", ""@class"": ""Structure"", ""charge"": 0, ""lattice"": {""matrix"": [[6.40393385, 0.0, 0.0], [0.0, 6.41619267, 0.0], [0.0, 0.0, 9.04877947]], ""pbc"": [true, true, true], ""a"": 6.40393385, ""b"": 6.41619267, ""c"": 9.04877947, ""alpha"": 90.0, ""beta"": 90.0, ""gamma"": 90.0, ""volume"": 371.80415431650613}, ""properties"": {}, ""sites"": [{""species"": [{""element"": ""K"", ""occu"": 1}], ""abc"": [0.0, -0.0, 0.75], ""properties"": {""magmom"": -0.0}, ""label"": ""K"", ""xyz"": [0.0, 0.0, 6.7865846025]}, {""species"": [{""element"": ""K"", ""occu"": 1}], ""abc"": [0.5, 0.5, 0.75], ""properties"": {""magmom"": -0.0}, ""label"": ""K"", ""xyz"": [3.201966925, 3.208096335, 6.7865846025]}, {""species"": [{""element"": ""K"", ""occu"": 1}], ""abc"": [0.5, 0.5, 0.25], ""properties"": {""magmom"": -0.0}, ""label"": ""K"", ""xyz"": [3.201966925, 3.208096335, 2.2621948675]}, {""species"": [{""element"": ""K"", ""occu"": 1}], ""abc"": [-0.0, 0.0, 0.25], ""properties"": {""magmom"": -0.0}, ""label"": ""K"", ""xyz"": [0.0, 0.0, 2.2621948675]}, {""species"": [{""element"": ""Hg"", ""occu"": 1}], ""abc"": [-0.0, 0.5, 0.0], ""properties"": {""magmom"": -0.0}, ""label"": ""Hg"", ""xyz"": [0.0, 3.208096335, 0.0]}, {""species"": [{""element"": ""Hg"", ""occu"": 1}], ""abc"": [0.5, -0.0, 0.5], ""properties"": {""magmom"": -0.0}, ""label"": ""Hg"", ""xyz"": [3.201966925, 0.0, 4.524389735]}, {""species"": [{""element"": ""Hg"", ""occu"": 1}], ""abc"": [0.5, 0.0, -0.0], ""properties"": {""magmom"": -0.0}, ""label"": ""Hg"", ""xyz"": [3.201966925, 0.0, 0.0]}, {""species"": [{""element"": ""Hg"", ""occu"": 1}], ""abc"": [-0.0, 0.5, 0.5], ""properties"": {""magmom"": -0.0}, ""label"": ""Hg"", ""xyz"": [0.0, 3.208096335, 4.524389735]}, {""species"": [{""element"": ""F"", ""occu"": 1}], ""abc"": [0.75, 0.75, 0.5], ""properties"": {""magmom"": 0.0}, ""label"": ""F"", ""xyz"": [4.802950387499999, 4.8121445025, 4.524389735]}, {""species"": [{""element"": ""F"", ""occu"": 1}], ""abc"": [0.25, 0.75, -0.0], ""properties"": {""magmom"": 0.0}, ""label"": ""F"", ""xyz"": [1.6009834625, 4.8121445025, 0.0]}, {""species"": [{""element"": ""F"", ""occu"": 1}], ""abc"": [0.75, 0.25, 0.5], ""properties"": {""magmom"": 0.0}, ""label"": ""F"", ""xyz"": [4.802950387499999, 1.6040481675, 4.524389735]}, {""species"": [{""element"": ""F"", ""occu"": 1}], ""abc"": [0.25, 0.25, 0.0], ""properties"": {""magmom"": 0.0}, ""label"": ""F"", ""xyz"": [1.6009834625, 1.6040481675, 0.0]}, {""species"": [{""element"": ""F"", ""occu"": 1}], ""abc"": [0.25, 0.25, 0.5], ""properties"": {""magmom"": 0.0}, ""label"": ""F"", ""xyz"": [1.6009834625, 1.6040481675, 4.524389735]}, {""species"": [{""element"": ""F"", ""occu"": 1}], ""abc"": [0.75, 0.25, -0.0], ""properties"": {""magmom"": 0.0}, ""label"": ""F"", ""xyz"": [4.802950387499999, 1.6040481675, 0.0]}, {""species"": [{""element"": ""F"", ""occu"": 1}], ""abc"": [0.25, 0.75, 0.5], ""properties"": {""magmom"": 0.0}, ""label"": ""F"", ""xyz"": [1.6009834625, 4.8121445025, 4.524389735]}, {""species"": [{""element"": ""F"", ""occu"": 1}], ""abc"": [0.75, 0.75, -0.0], ""properties"": {""magmom"": 0.0}, ""label"": ""F"", ""xyz"": [4.802950387499999, 4.8121445025, 0.0]}, {""species"": [{""element"": ""F"", ""occu"": 1}], ""abc"": [0.0, 0.5, 0.75], ""properties"": {""magmom"": 0.0}, ""label"": ""F"", ""xyz"": [0.0, 3.208096335, 6.7865846025]}, {""species"": [{""element"": ""F"", ""occu"": 1}], ""abc"": [0.5, 0.0, 0.75], ""properties"": {""magmom"": 0.0}, ""label"": ""F"", ""xyz"": [3.201966925, 0.0, 6.7865846025]}, {""species"": [{""element"": ""F"", ""occu"": 1}], ""abc"": [0.5, 0.0, 0.25], ""properties"": {""magmom"": 0.0}, ""label"": ""F"", ""xyz"": [3.201966925, 0.0, 2.2621948675]}, {""species"": [{""element"": ""F"", ""occu"": 1}], ""abc"": [-0.0, 0.5, 0.25], ""properties"": {""magmom"": 0.0}, ""label"": ""F"", ""xyz"": [0.0, 3.208096335, 2.2621948675]}]}",KHgF3,221,0.6093999999999999,0.0,0.0049001944677869,0.0082986266867792,0.0032815517442897
mp-9488,"{""@module"": ""pymatgen.core.structure"", ""@class"": ""Structure"", ""charge"": 0, ""lattice"": {""matrix"": [[6.56745541, -1.949611969999999, -0.00372976], [6.56745541, 1.949611969999999, -0.00372976], [5.99058323, 0.0, 3.32345959]], ""pbc"": [true, true, true], ""a"": 6.850727793965777, ""b"": 6.850727793965777, ""c"": 6.850727777537231, ""alpha"": 33.068056634878296, ""beta"": 33.068056634878296, ""gamma"": 33.06804542701266, ""volume"": 85.1942066502461}, ""properties"": {}, ""sites"": [{""species"": [{""element"": ""Sm"", ""occu"": 1}], ""abc"": [0.758219099999999, 0.758219099999999, 0.758219099999999], ""properties"": {""magmom"": 0.0}, ""label"": ""Sm"", ""xyz"": [14.501314885646337, 0.0, 2.514254588675334]}, {""species"": [{""element"": ""Sm"", ""occu"": 1}], ""abc"": [0.2417809, 0.2417809, 0.2417809], ""properties"": {""magmom"": 0.0}, ""label"": ""Sm"", ""xyz"": [4.624179164353645, 0.0, 0.801745481324663]}, {""species"": [{""element"": ""O"", ""occu"": 1}], ""abc"": [0.8783222900000001, 0.8783222900000001, 0.8783222900000001], ""properties"": {""magmom"": -0.0}, ""label"": ""O"", ""xyz"": [16.798347731377376, 0.0, 2.9125167751225605]}, {""species"": [{""element"": ""O"", ""occu"": 1}], ""abc"": [0.12167771000000001, 0.12167771000000001, 0.12167771000000001], ""properties"": {""magmom"": -0.0}, ""label"": ""O"", ""xyz"": [2.327146318622626, 0.0, 0.4034832948774397]}, {""species"": [{""element"": ""F"", ""occu"": 1}], ""abc"": [0.36989293, 0.36989293, 0.36989293], ""properties"": {""magmom"": 0.0}, ""label"": ""F"", ""xyz"": [7.074385031852067, 0.0, 1.2265649817725053]}, {""species"": [{""element"": ""F"", ""occu"": 1}], ""abc"": [0.63010707, 0.63010707, 0.63010707], ""properties"": {""magmom"": 0.0}, ""label"": ""F"", ""xyz"": [12.051109018147935, 0.0, 2.089435088227495]}]}",SmOF,166,4.733099999999999,0.0,0.0019811397900095,0.0028389989145608,0.0013364306700698
mp-11327,"{""@module"": ""pymatgen.core.structure"", ""@class"": ""Structure"", ""charge"": 0, ""lattice"": {""matrix"": [[4.93432183, -1e-08, 2.84883152], [1.64477326, 4.65212227, 2.84883152], [-0.0, -0.0, 5.69766304]], ""pbc"": [true, true, true], ""a"": 5.697663815228138, ""b"": 5.697662829721191, ""c"": 5.69766304, ""alpha"": 59.99999877915432, ""beta"": 60.00000450085169, ""gamma"": 60.00000424528899, ""volume"": 130.79024531122957}, ""properties"": {}, ""sites"": [{""species"": [{""element"": ""Rb"", ""occu"": 1}], ""abc"": [0.75, 0.75, 0.75], ""properties"": {""magmom"": -0.0}, ""label"": ""Rb"", ""xyz"": [4.9343213175, 3.4890916949999995, 8.54649456]}, {""species"": [{""element"": ""Rb"", ""occu"": 1}], ""abc"": [0.25, 0.25, 0.25], ""properties"": {""magmom"": -0.0}, ""label"": ""Rb"", ""xyz"": [1.6447737725, 1.163030565, 2.84883152]}, {""species"": [{""element"": ""Se"", ""occu"": 1}], ""abc"": [-0.0, -0.0, -0.0], ""properties"": {""magmom"": 0.0}, ""label"": ""Se"", ""xyz"": [0.0, 0.0, 0.0]}]}",Rb2Se,225,1.7919999999999998,0.0,0.0103232363067186,0.021721044758424,0.0065174413095051