id,structure_json,formula,spacegroup,bandgap,energy_above_hull,k_1064,k_755,k_1500
mp-998739,"{""@module"": ""pymatgen.core.structure"", ""@class"": ""Structure"", ""charge"": 0, ""lattice"": {""matrix"": [[-0.00357827, -4.07757849, -0.03573496], [-4.07701302, 0.00340319, -0.01575427], [0.01589447, 0.03320583, -4.07482373]], ""pbc"": [true, true, true], ""a"": 4.0777366434693985, ""b"": 4.07704487882767, ""c"": 4.074990023533025, ""alpha"": 90.0017004734871, ""beta"": 89.96497646930888, ""gamma"": 89.99560641003497, ""volume"": 67.74716609914387}, ""properties"": {}, ""sites"": [{""species"": [{""element"": ""Mg"", ""occu"": 1}], ""abc"": [0.48691141, 0.49999306, 0.49922206], ""properties"": {""magmom"": -0.0}, ""label"": ""Mg"", ""xyz"": [-2.0322856459646936, -1.9671408377130994, -2.059518682052744]}, {""species"": [{""element"": ""Tl"", ""occu"": 1}], ""abc"": [0.98804622, 0.99997033, 0.997412699999999], ""properties"": {""magmom"": 0.0}, ""label"": ""Tl"", ""xyz"": [-4.064574204933567, -3.9923130082144134, -4.115342533284028]}, {""species"": [{""element"": ""F"", ""occu"": 1}], ""abc"": [0.48857138, 2.7160000000000004e-05, 0.49725327], ""properties"": {""magmom"": 0.0}, ""label"": ""F"", ""xyz"": [0.0060446051968811015, -1.9756763499364114, -2.043678931023515]}, {""species"": [{""element"": ""F"", ""occu"": 1}], ""abc"": [0.987868499999999, 0.50002292, 0.49736463000000003], ""properties"": {""magmom"": 0.0}, ""label"": ""F"", ""xyz"": [-2.034229468165318, -4.009894268195652, -2.0698521342072986]}, {""species"": [{""element"": ""F"", ""occu"": 1}], ""abc"": [0.48860149, 0.49998653, 0.9987443500000001], ""properties"": {""magmom"": -0.0}, ""label"": ""F"", ""xyz"": [-2.0243254285794983, -1.9574452415473589, -4.0950442550745]}]}",MgTlF3,221,4.278499999999999,0.0,0.0028016542550284,0.0043490833938298,0.0018941613781748
mp-10783,"{""@module"": ""pymatgen.core.structure"", ""@class"": ""Structure"", ""charge"": 0, ""lattice"": {""matrix"": [[8.0273184, -2.10065613, -0.00130963], [8.0273184, 2.10065613, -0.00130963], [7.47818839, -0.0, 3.59545577]], ""pbc"": [true, true, true], ""a"": 8.297626081393151, ""b"": 8.297626081393151, ""c"": 8.297626394961217, ""alpha"": 29.329579744112355, ""beta"": 29.329579744112355, ""gamma"": 29.32958321498881, ""volume"": 121.29886718589665}, ""properties"": {}, ""sites"": [{""species"": [{""element"": ""Rb"", ""occu"": 1}], ""abc"": [0.0, 0.0, -0.0], ""properties"": {""magmom"": 0.0}, ""label"": ""Rb"", ""xyz"": [0.0, 0.0, 0.0]}, {""species"": [{""element"": ""Ho"", ""occu"": 1}], ""abc"": [0.5, 0.5, 0.5], ""properties"": {""magmom"": -0.0}, ""label"": ""Ho"", ""xyz"": [11.766412595, 0.0, 1.796418255]}, {""species"": [{""element"": ""Se"", ""occu"": 1}], ""abc"": [0.23158618, 0.23158618, 0.23158618], ""properties"": {""magmom"": 0.0}, ""label"": ""Se"", ""xyz"": [5.449877090359874, 0.0, 0.8320512827154318]}, {""species"": [{""element"": ""Se"", ""occu"": 1}], ""abc"": [0.76841382, 0.76841382, 0.76841382], ""properties"": {""magmom"": 0.0}, ""label"": ""Se"", ""xyz"": [18.082948099640127, 0.0, 2.7607852272845683]}]}",RbHoSe2,166,1.9866,0.0,0.0139151588595471,0.0244851127829151,0.0087855746316853
mp-1101301,"{""@module"": ""pymatgen.core.structure"", ""@class"": ""Structure"", ""charge"": 0, ""lattice"": {""matrix"": [[2.58236177, 4.47419041, -0.10715199], [-2.58236177, 4.47419041, 0.10715199], [-1.49337464, 0.0, 9.67435674]], ""pbc"": [true, true, true], ""a"": 5.167054643126436, ""b"": 5.167054643126436, ""c"": 9.788939991039815, ""alpha"": 84.44857866470069, ""beta"": 95.55142133529931, ""gamma"": 60.02705853309687, ""volume"": 222.12271245320855}, ""properties"": {}, ""sites"": [{""species"": [{""element"": ""Te"", ""occu"": 1}], ""abc"": [0.16643181, 0.6664705, 0.49995098], ""properties"": {""magmom"": -0.0}, ""label"": ""Te"", ""xyz"": [-2.037894911352028, 3.7265635278688474, 4.890284273743099]}, {""species"": [{""element"": ""Te"", ""occu"": 1}], ""abc"": [0.3335295, 0.83356819, 0.99995098], ""properties"": {""magmom"": -0.0}, ""label"": ""Te"", ""xyz"": [-2.7845822313520285, 5.221817292131153, 9.727462643743099]}, {""species"": [{""element"": ""Te"", ""occu"": 1}], ""abc"": [0.6664705, 0.16643181, 4.9020000000000015e-05], ""properties"": {""magmom"": -0.0}, ""label"": ""Te"", ""xyz"": [1.2912075913520282, 3.7265635278688474, -0.053105903743098294]}, {""species"": [{""element"": ""Te"", ""occu"": 1}], ""abc"": [0.83356819, 0.3335295, 0.50004902], ""properties"": {""magmom"": -0.0}, ""label"": ""Te"", ""xyz"": [0.5445202713520285, 5.221817292131153, 4.784072466256902]}, {""species"": [{""element"": ""O"", ""occu"": 1}], ""abc"": [0.16222571, 0.95875116, 0.61214979], ""properties"": {""magmom"": 0.0}, ""label"": ""O"", ""xyz"": [-2.9710858431793725, 5.015463961585817, 6.00750473382923]}, {""species"": [{""element"": ""O"", ""occu"": 1}], ""abc"": [0.57844268, 0.92156604, 0.8871808], ""properties"": {""magmom"": 0.0}, ""label"": ""O"", ""xyz"": [-2.210961955072859, 6.711324629940375, 8.619669902918078]}, {""species"": [{""element"": ""O"", ""occu"": 1}], ""abc"": [0.33745869, 0.54108948, 0.88799262], ""properties"": {""magmom"": 0.0}, ""label"": ""O"", ""xyz"": [-1.8519540265060552, 3.9307917969370503, 8.61257683274103]}, {""species"": [{""element"": ""O"", ""occu"": 1}], ""abc"": [0.04124884, 0.83777429, 0.11214979], ""properties"": {""magmom"": 0.0}, ""label"": ""O"", ""xyz"": [-2.2243985231793717, 3.932916858414184, 1.1703263638292303]}, {""species"": [{""element"": ""O"", ""occu"": 1}], ""abc"": [0.07843396, 0.42155732, 0.3871808], ""properties"": {""magmom"": 0.0}, ""label"": ""O"", ""xyz"": [-1.4642746350728593, 2.237056190059625, 3.7824915329180784]}, {""species"": [{""element"": ""O"", ""occu"": 1}], ""abc"": [0.45891052, 0.66254131, 0.38799262], ""properties"": {""magmom"": 0.0}, ""label"": ""O"", ""xyz"": [-1.1052667065060553, 5.017589023062951, 3.7753984627410313]}, {""species"": [{""element"": ""O"", ""occu"": 1}], ""abc"": [0.54108948, 0.33745869, 0.61200738], ""properties"": {""magmom"": 0.0}, ""label"": ""O"", ""xyz"": [-0.3881079334939449, 3.9307917969370503, 5.898958277258969]}, {""species"": [{""element"": ""O"", ""occu"": 1}], ""abc"": [0.92156604, 0.57844268, 0.6128192], ""properties"": {""magmom"": 0.0}, ""label"": ""O"", ""xyz"": [-0.02910000492714071, 6.711324629940375, 5.8918652070819215]}, {""species"": [{""element"": ""O"", ""occu"": 1}], ""abc"": [0.95875116, 0.16222571, 0.88785021], ""properties"": {""magmom"": 0.0}, ""label"": ""O"", ""xyz"": [0.7310238831793723, 5.015463961585817, 8.504030376170771]}, {""species"": [{""element"": ""O"", ""occu"": 1}], ""abc"": [0.66254131, 0.45891052, 0.11200738], ""properties"": {""magmom"": 0.0}, ""label"": ""O"", ""xyz"": [0.35857938650605525, 5.017589023062951, 1.0617799072589693]}, {""species"": [{""element"": ""O"", ""occu"": 1}], ""abc"": [0.42155732, 0.07843396, 0.1128192], ""properties"": {""magmom"": 0.0}, ""label"": ""O"", ""xyz"": [0.7175873150728593, 2.237056190059625, 1.0546868370819216]}, {""species"": [{""element"": ""O"", ""occu"": 1}], ""abc"": [0.83777429, 0.04124884, 0.38785021000000003], ""properties"": {""magmom"": 0.0}, ""label"": ""O"", ""xyz"": [1.4777112031793718, 3.932916858414184, 3.66685200617077]}]}",TeO3,12,2.1695,0.0,0.0053908751989451,0.0090402354079849,0.0035018845988648
mp-613910,"{""@module"": ""pymatgen.core.structure"", ""@class"": ""Structure"", ""charge"": 0, ""lattice"": {""matrix"": [[4.76979127, -0.03318938, -0.70089314], [-0.80663403, 4.70120627, -0.70089314], [-0.02817743, -0.03318938, 4.82092943]], ""pbc"": [true, true, true], ""a"": 4.821126578717059, ""b"": 4.821125391974411, ""c"": 4.821126016974283, ""alpha"": 98.69118245348572, ""beta"": 98.69117450532735, ""gamma"": 98.69117462193886, ""volume"": 107.75113969538981}, ""properties"": {}, ""sites"": [{""species"": [{""element"": ""Ba"", ""occu"": 1}], ""abc"": [0.5, 0.5, 0.5], ""properties"": {""magmom"": -0.0}, ""label"": ""Ba"", ""xyz"": [1.9674899049999999, 2.3174137550000005, 1.7095715749999998]}, {""species"": [{""element"": ""Ni"", ""occu"": 1}], ""abc"": [0.0, 0.0, 0.0], ""properties"": {""magmom"": -0.0}, ""label"": ""Ni"", ""xyz"": [0.0, 0.0, 0.0]}, {""species"": [{""element"": ""F"", ""occu"": 1}], ""abc"": [0.73484013, 0.73484013, 0.07365147], ""properties"": {""magmom"": 0.0}, ""label"": ""F"", ""xyz"": [2.910211672311719, 3.427801691664407, -0.6750202729416546]}, {""species"": [{""element"": ""F"", ""occu"": 1}], ""abc"": [0.73484013, 0.07365147, 0.73484013], ""properties"": {""magmom"": 0.0}, ""label"": ""F"", ""xyz"": [3.4249183485338754, 0.2974729759310781, 2.9759461928744018]}, {""species"": [{""element"": ""F"", ""occu"": 1}], ""abc"": [0.26515987, 0.9263485300000001, 0.26515987], ""properties"": {""magmom"": 0.0}, ""label"": ""F"", ""xyz"": [0.5100614614661249, 4.337354534068922, 0.44319695712559803]}, {""species"": [{""element"": ""F"", ""occu"": 1}], ""abc"": [0.26515987, 0.26515987, 0.9263485300000001], ""properties"": {""magmom"": 0.0}, ""label"": ""F"", ""xyz"": [1.024768137688281, 1.2070258183355929, 4.094163422941654]}, {""species"": [{""element"": ""F"", ""occu"": 1}], ""abc"": [0.9263485300000001, 0.26515987, 0.26515987], ""properties"": {""magmom"": 0.0}, ""label"": ""F"", ""xyz"": [4.197130633163224, 1.2070258183355929, 0.44319695712559803]}, {""species"": [{""element"": ""F"", ""occu"": 1}], ""abc"": [0.07365147, 0.73484013, 0.73484013], ""properties"": {""magmom"": 0.0}, ""label"": ""F"", ""xyz"": [-0.26215082316322297, 3.427801691664407, 2.9759461928744018]}]}",BaNiF6,166,1.2743,0.0,0.0205635249613147,0.1655134763377463,0.0105218521065792
mp-19,"{""@module"": ""pymatgen.core.structure"", ""@class"": ""Structure"", ""charge"": 0, ""lattice"": {""matrix"": [[4.60135134, 0.00037101, -0.0016382], [-2.30035569, 3.985073899999999, 0.00163925], [-0.0025081500000000002, 0.00144881, 5.90006129]], ""pbc"": [true, true, true], ""a"": 4.60135164657815, ""b"": 4.601353385267984, ""c"": 5.900062000998235, ""alpha"": 89.95522639486674, ""beta"": 90.04475440559331, ""gamma"": 119.99077114584101, ""volume"": 108.19281571621222}, ""properties"": {}, ""sites"": [{""species"": [{""element"": ""Te"", ""occu"": 1}], ""abc"": [0.25671729, 1.9620000000000002e-05, 0.33367658], ""properties"": {""magmom"": 0.0}, ""label"": ""Te"", ""xyz"": [1.1803644024499038, 0.0006568657975506999, 1.9682917509351952]}, {""species"": [{""element"": ""Te"", ""occu"": 1}], ""abc"": [1.9620000000000002e-05, 0.25671629, 0.66632342], ""properties"": {""magmom"": 0.0}, ""label"": ""Te"", ""xyz"": [-0.5921197389897723, 1.0239987702971771, 3.9317698069993106]}, {""species"": [{""element"": ""Te"", ""occu"": 1}], ""abc"": [0.74326409, 0.74326409, -0.0], ""properties"": {""magmom"": 0.0}, ""label"": ""Te"", ""xyz"": [1.7102474378912085, 2.962238084276281, 7.804272945000513e-07]}]}",Te,152,0.5057,0.0,2.8463646768510547,5.559155485528342,1.852665903773391
mp-550635,"{""@module"": ""pymatgen.core.structure"", ""@class"": ""Structure"", ""charge"": 0, ""lattice"": {""matrix"": [[3.903233, 0.0, 0.0], [0.0, 3.903233, 0.0], [0.0, 0.0, 9.695471]], ""pbc"": [true, true, true], ""a"": 3.903233, ""b"": 3.903233, ""c"": 9.695471, ""alpha"": 90.0, ""beta"": 90.0, ""gamma"": 90.0, ""volume"": 147.7127098202603}, ""properties"": {}, ""sites"": [{""species"": [{""element"": ""Lu"", ""occu"": 1}], ""abc"": [0.0, 0.0, 0.0], ""properties"": {""magmom"": 0.001}, ""label"": ""Lu"", ""xyz"": [0.0, 0.0, 0.0]}, {""species"": [{""element"": ""Bi"", ""occu"": 1}], ""abc"": [0.5, 0.5, 0.253973], ""properties"": {""magmom"": 0.0}, ""label"": ""Bi"", ""xyz"": [1.9516165, 1.9516165, 2.4623878562829997]}, {""species"": [{""element"": ""Bi"", ""occu"": 1}], ""abc"": [0.5, 0.5, 0.746027], ""properties"": {""magmom"": 0.0}, ""label"": ""Bi"", ""xyz"": [1.9516165, 1.9516165, 7.233083143717]}, {""species"": [{""element"": ""I"", ""occu"": 1}], ""abc"": [0.0, 0.0, 0.5], ""properties"": {""magmom"": 0.0}, ""label"": ""I"", ""xyz"": [0.0, 0.0, 4.8477355]}, {""species"": [{""element"": ""O"", ""occu"": 1}], ""abc"": [0.5, 0.0, 0.862613], ""properties"": {""magmom"": -0.0}, ""label"": ""O"", ""xyz"": [1.9516165, 0.0, 8.363439325722998]}, {""species"": [{""element"": ""O"", ""occu"": 1}], ""abc"": [0.0, 0.5, 0.862613], ""properties"": {""magmom"": -0.0}, ""label"": ""O"", ""xyz"": [0.0, 1.9516165, 8.363439325722998]}, {""species"": [{""element"": ""O"", ""occu"": 1}], ""abc"": [0.5, 0.0, 0.137386999999999], ""properties"": {""magmom"": -0.0}, ""label"": ""O"", ""xyz"": [1.9516165, 0.0, 1.3320316742769904]}, {""species"": [{""element"": ""O"", ""occu"": 1}], ""abc"": [0.0, 0.5, 0.137386999999999], ""properties"": {""magmom"": -0.0}, ""label"": ""O"", ""xyz"": [0.0, 1.9516165, 1.3320316742769904]}]}",LuBi2IO4,123,1.4566,0.0,0.0149956187174497,0.033828479642379,0.0094670909945087
mp-1821,"{""@module"": ""pymatgen.core.structure"", ""@class"": ""Structure"", ""charge"": 0, ""lattice"": {""matrix"": [[3.319932129999999, -2e-08, 0.0], [-1.65996761, 2.8751465, -0.0], [0.0, -0.0, 13.7371873]], ""pbc"": [true, true, true], ""a"": 3.319932129999999, ""b"": 3.3199337136020297, ""c"": 13.7371873, ""alpha"": 90.0, ""beta"": 90.0, ""gamma"": 120.00001535487395, ""volume"": 131.1254531931616}, ""properties"": {}, ""sites"": [{""species"": [{""element"": ""W"", ""occu"": 1}], ""abc"": [0.666667, 0.333333, 0.75], ""properties"": {""magmom"": 0.0}, ""label"": ""W"", ""xyz"": [1.6599672099665792, 0.95838119495116, 10.302890475]}, {""species"": [{""element"": ""W"", ""occu"": 1}], ""abc"": [0.333333, 0.666667, 0.25], ""properties"": {""magmom"": 0.0}, ""label"": ""W"", ""xyz"": [-2.689966580371461e-06, 1.9167652850488401, 3.434296825]}, {""species"": [{""element"": ""Se"", ""occu"": 1}], ""abc"": [0.333333, 0.666667, 0.87100079], ""properties"": {""magmom"": -0.0}, ""label"": ""Se"", ""xyz"": [-2.689966580371461e-06, 1.9167652850488401, 11.965100990677968]}, {""species"": [{""element"": ""Se"", ""occu"": 1}], ""abc"": [0.666667, 0.333333, 0.37100079], ""properties"": {""magmom"": -0.0}, ""label"": ""Se"", ""xyz"": [1.6599672099665792, 0.95838119495116, 5.0965073406779675]}, {""species"": [{""element"": ""Se"", ""occu"": 1}], ""abc"": [0.333333, 0.666667, 0.62899921], ""properties"": {""magmom"": -0.0}, ""label"": ""Se"", ""xyz"": [-2.689966580371461e-06, 1.9167652850488401, 8.640679959322034]}, {""species"": [{""element"": ""Se"", ""occu"": 1}], ""abc"": [0.666667, 0.333333, 0.12899921], ""properties"": {""magmom"": -0.0}, ""label"": ""Se"", ""xyz"": [1.6599672099665792, 0.95838119495116, 1.7720863093220331]}]}",WSe2,194,1.5381000000000005,0.0,0.0582534701163262,0.5917168312247757,0.0294687674937953
mp-643,"{""@module"": ""pymatgen.core.structure"", ""@class"": ""Structure"", ""charge"": 0, ""lattice"": {""matrix"": [[3.42987262, -1e-08, 1.98023817], [1.1432902, 3.23371563, 1.98023817], [0.0, -0.0, 3.96047634]], ""pbc"": [true, true, true], ""a"": 3.9604759056646985, ""b"": 3.960476292953574, ""c"": 3.96047634, ""alpha"": 59.99999960704645, ""beta"": 59.999996372229816, ""gamma"": 60.00001069373722, ""volume"": 43.92656473586823}, ""properties"": {}, ""sites"": [{""species"": [{""element"": ""Th"", ""occu"": 1}], ""abc"": [0.0, -0.0, -0.0], ""properties"": {""magmom"": -0.0}, ""label"": ""Th"", ""xyz"": [0.0, 0.0, 0.0]}, {""species"": [{""element"": ""O"", ""occu"": 1}], ""abc"": [0.25, 0.25, 0.25], ""properties"": {""magmom"": 0.0}, ""label"": ""O"", ""xyz"": [1.143290705, 0.808428905, 1.98023817]}, {""species"": [{""element"": ""O"", ""occu"": 1}], ""abc"": [0.75, 0.75, 0.75], ""properties"": {""magmom"": 0.0}, ""label"": ""O"", ""xyz"": [3.429872115, 2.425286715, 5.94071451]}]}",ThO2,225,4.4661,0.0,0.0030848763895889,0.0046978034769138,0.0021095746621006
mp-13972,"{""@module"": ""pymatgen.core.structure"", ""@class"": ""Structure"", ""charge"": 0, ""lattice"": {""matrix"": [[3.937997069999999, -1e-08, -0.0], [-1.96899904, 3.41040561, 0.0], [-0.0, 0.0, 6.94589621]], ""pbc"": [true, true, true], ""a"": 3.937997069999999, ""b"": 3.9379974154689834, ""c"": 6.94589621, ""alpha"": 90.0, ""beta"": 90.0, ""gamma"": 120.00000572764914, ""volume"": 93.28454800982891}, ""properties"": {}, ""sites"": [{""species"": [{""element"": ""Sm"", ""occu"": 1}], ""abc"": [0.666667, 0.333333, 0.71055521], ""properties"": {""magmom"": -0.0}, ""label"": ""Sm"", ""xyz"": [1.9690003356653696, 1.13680072653146, 4.935442740134754]}, {""species"": [{""element"": ""Sm"", ""occu"": 1}], ""abc"": [0.333333, 0.666667, 0.28944479], ""properties"": {""magmom"": -0.0}, ""label"": ""Sm"", ""xyz"": [-2.305665370405663e-06, 2.27360487346854, 2.010453469865246]}, {""species"": [{""element"": ""Se"", ""occu"": 1}], ""abc"": [-0.0, -0.0, -0.0], ""properties"": {""magmom"": -0.0}, ""label"": ""Se"", ""xyz"": [0.0, 0.0, 0.0]}, {""species"": [{""element"": ""O"", ""occu"": 1}], ""abc"": [0.666667, 0.333333, 0.3744943], ""properties"": {""magmom"": 0.0}, ""label"": ""O"", ""xyz"": [1.9690003356653696, 1.13680072653146, 2.601198539036603]}, {""species"": [{""element"": ""O"", ""occu"": 1}], ""abc"": [0.333333, 0.666667, 0.625505699999999], ""properties"": {""magmom"": 0.0}, ""label"": ""O"", ""xyz"": [-2.305665370405663e-06, 2.27360487346854, 4.344697670963391]}]}",Sm2SeO2,164,2.138100000000001,0.0,0.0069469399418527,0.0105576243708104,0.0045533017395031
mp-861605,"{""@module"": ""pymatgen.core.structure"", ""@class"": ""Structure"", ""charge"": 0, ""lattice"": {""matrix"": [[0.0, 2.90569069, 2.90569069], [2.90569069, 0.0, 2.90569069], [2.90569069, 2.90569069, 0.0]], ""pbc"": [true, true, true], ""a"": 4.109267181859237, ""b"": 4.109267181859237, ""c"": 4.109267181859237, ""alpha"": 60.00000000000001, ""beta"": 60.00000000000001, ""gamma"": 60.00000000000001, ""volume"": 49.065716066750646}, ""properties"": {}, ""sites"": [{""species"": [{""element"": ""Ac"", ""occu"": 1}], ""abc"": [0.75, 0.75, 0.75], ""properties"": {""magmom"": -0.0}, ""label"": ""Ac"", ""xyz"": [4.358536035, 4.358536035, 4.358536035]}, {""species"": [{""element"": ""H"", ""occu"": 1}], ""abc"": [0.0, -0.0, -0.0], ""properties"": {""magmom"": 0.0}, ""label"": ""H"", ""xyz"": [0.0, 0.0, 0.0]}, {""species"": [{""element"": ""H"", ""occu"": 1}], ""abc"": [0.5, 0.5, 0.5], ""properties"": {""magmom"": 0.0}, ""label"": ""H"", ""xyz"": [2.90569069, 2.90569069, 2.90569069]}, {""species"": [{""element"": ""H"", ""occu"": 1}], ""abc"": [0.250001, 0.250001, 0.250001], ""properties"": {""magmom"": 0.0}, ""label"": ""H"", ""xyz"": [1.45285115638138, 1.45285115638138, 1.45285115638138]}]}",AcH3,225,0.6400999999999994,0.0,0.1250937190042927,0.0848507406979837,0.0226489417964884