id,structure_json,formula,spacegroup,bandgap,energy_above_hull,k_1064,k_755,k_1500
mp-1185537,"{""@module"": ""pymatgen.core.structure"", ""@class"": ""Structure"", ""charge"": 0, ""lattice"": {""matrix"": [[0.0, 4.50569777, 4.50569777], [4.50569777, 0.0, 4.50569777], [4.50569777, 4.50569777, -0.0]], ""pbc"": [true, true, true], ""a"": 6.37201889428821, ""b"": 6.37201889428821, ""c"": 6.37201889428821, ""alpha"": 59.99999999999999, ""beta"": 59.99999999999999, ""gamma"": 59.99999999999999, ""volume"": 182.94315596869177}, ""properties"": {}, ""sites"": [{""species"": [{""element"": ""Cs"", ""occu"": 1}], ""abc"": [0.75, 0.75, 0.75], ""properties"": {""magmom"": -0.0}, ""label"": ""Cs"", ""xyz"": [6.758546655, 6.758546655, 6.758546655]}, {""species"": [{""element"": ""Cs"", ""occu"": 1}], ""abc"": [0.25, 0.25, 0.25], ""properties"": {""magmom"": -0.0}, ""label"": ""Cs"", ""xyz"": [2.252848885, 2.252848885, 2.252848885]}, {""species"": [{""element"": ""Hg"", ""occu"": 1}], ""abc"": [0.5, 0.5, 0.5], ""properties"": {""magmom"": -0.0}, ""label"": ""Hg"", ""xyz"": [4.50569777, 4.50569777, 4.50569777]}, {""species"": [{""element"": ""Te"", ""occu"": 1}], ""abc"": [0.0, 0.0, -0.0], ""properties"": {""magmom"": 0.0}, ""label"": ""Te"", ""xyz"": [0.0, 0.0, 0.0]}]}",Cs2HgTe,225,1.8026,0.0,0.0429703896693405,0.1148172832725116,0.0237569235098418
mp-10782,"{""@module"": ""pymatgen.core.structure"", ""@class"": ""Structure"", ""charge"": 0, ""lattice"": {""matrix"": [[8.03170375, -2.11997978, -0.00271672], [8.03170375, 2.11997978, -0.00271672], [7.4733583, -0.0, 3.626498299999999]], ""pbc"": [true, true, true], ""a"": 8.306779567072937, ""b"": 8.306779567072937, ""c"": 8.306778810109353, ""alpha"": 29.572160197338025, ""beta"": 29.572160197338025, ""gamma"": 29.572151668531966, ""volume"": 123.5832164786266}, ""properties"": {}, ""sites"": [{""species"": [{""element"": ""Rb"", ""occu"": 1}], ""abc"": [0.0, 0.0, 0.0], ""properties"": {""magmom"": 0.0}, ""label"": ""Rb"", ""xyz"": [0.0, 0.0, 0.0]}, {""species"": [{""element"": ""Tb"", ""occu"": 1}], ""abc"": [0.5, 0.5, 0.5], ""properties"": {""magmom"": -0.0}, ""label"": ""Tb"", ""xyz"": [11.7683829, 0.0, 1.8105324299999994]}, {""species"": [{""element"": ""Se"", ""occu"": 1}], ""abc"": [0.23215753, 0.23215753, 0.23215753], ""properties"": {""magmom"": 0.0}, ""label"": ""Se"", ""xyz"": [5.464237412316474, 0.0, 0.8406574738673955]}, {""species"": [{""element"": ""Se"", ""occu"": 1}], ""abc"": [0.76784247, 0.76784247, 0.76784247], ""properties"": {""magmom"": 0.0}, ""label"": ""Se"", ""xyz"": [18.072528387683526, 0.0, 2.7804073861326035]}]}",RbTbSe2,166,1.9586,0.0,0.0143566372309156,0.0264652612496398,0.0090360265105454
mp-22897,"{""@module"": ""pymatgen.core.structure"", ""@class"": ""Structure"", ""charge"": 0, ""lattice"": {""matrix"": [[4.23407296, 1e-08, -1.607779729999999], [-0.6105124, 4.18982827, -1.6077797500000002], [0.0016350100000000001, 0.00188986, 6.38339118]], ""pbc"": [true, true, true], ""a"": 4.529053928890892, ""b"": 4.5290553150911075, ""c"": 6.383391669146608, ""alpha"": 110.77830172903626, ""beta"": 110.77830226901591, ""gamma"": 89.99999528035964, ""volume"": 113.267339996862}, ""properties"": {}, ""sites"": [{""species"": [{""element"": ""Hg"", ""occu"": 1}], ""abc"": [0.88334833, 0.88334833, 0.76669667], ""properties"": {""magmom"": 0.0}, ""label"": ""Hg"", ""xyz"": [3.2021197260522816, 3.7025267634935384, 2.053665664339703]}, {""species"": [{""element"": ""Hg"", ""occu"": 1}], ""abc"": [0.11665167, 0.11665167, 0.23330333], ""properties"": {""magmom"": 0.0}, ""label"": ""Hg"", ""xyz"": [0.42307584394771847, 0.4891913765064614, 1.114166035660298]}, {""species"": [{""element"": ""Cl"", ""occu"": 1}], ""abc"": [0.66159205, 0.66159205, 0.32318309], ""properties"": {""magmom"": -0.0}, ""label"": ""Cl"", ""xyz"": [2.3978472667735287, 2.7725678517076413, -0.06438450203898682]}, {""species"": [{""element"": ""Cl"", ""occu"": 1}], ""abc"": [0.33840795, 0.33840795, 0.67681691], ""properties"": {""magmom"": -0.0}, ""label"": ""Cl"", ""xyz"": [1.2273483032264711, 1.4191502882923583, 3.2322162020389884]}]}",HgCl,139,2.796,0.0,0.0098509689952707,0.0163589177242814,0.0064068327170267
mp-648,"{""@module"": ""pymatgen.core.structure"", ""@class"": ""Structure"", ""charge"": 0, ""lattice"": {""matrix"": [[3.979384999999999, 0.0, 2.297499], [1.326462, 3.751801, 2.297499], [0.0, 0.0, 4.594998]], ""pbc"": [true, true, true], ""a"": 4.5949980014387375, ""b"": 4.59499878520615, ""c"": 4.594998, ""alpha"": 60.000005652756585, ""beta"": 60.00000001035759, ""gamma"": 60.000001492917214, ""volume"": 68.60267970013781}, ""properties"": {}, ""sites"": [{""species"": [{""element"": ""Na"", ""occu"": 1}], ""abc"": [0.25, 0.25, 0.25], ""properties"": {""magmom"": -0.0}, ""label"": ""Na"", ""xyz"": [1.3264617499999998, 0.93795025, 2.297499]}, {""species"": [{""element"": ""Na"", ""occu"": 1}], ""abc"": [0.75, 0.75, 0.75], ""properties"": {""magmom"": -0.0}, ""label"": ""Na"", ""xyz"": [3.979385249999999, 2.81385075, 6.8924970000000005]}, {""species"": [{""element"": ""S"", ""occu"": 1}], ""abc"": [0.0, 0.0, 0.0], ""properties"": {""magmom"": 0.0}, ""label"": ""S"", ""xyz"": [0.0, 0.0, 0.0]}]}",Na2S,225,2.4426,0.0,0.0069624141947584,0.0123100292794488,0.004501890571322
mp-3980,"{""@module"": ""pymatgen.core.structure"", ""@class"": ""Structure"", ""charge"": 0, ""lattice"": {""matrix"": [[4.46032721, 0.03817779, 2.96572236], [1.60924781, 4.16008206, 2.96572534], [0.05519408, 0.03817282, 5.356023]], ""pbc"": [true, true, true], ""a"": 5.356443361085753, ""b"": 5.35644360114449, ""c"": 5.356443402779759, ""alpha"": 55.78766544092005, ""beta"": 55.78765878379449, ""gamma"": 55.78767397702133, ""volume"": 98.05621152520868}, ""properties"": {}, ""sites"": [{""species"": [{""element"": ""Li"", ""occu"": 1}], ""abc"": [0.5, 0.5, 0.5], ""properties"": {""magmom"": -0.0}, ""label"": ""Li"", ""xyz"": [3.06238455, 2.1182163349999996, 5.64373535]}, {""species"": [{""element"": ""Sb"", ""occu"": 1}], ""abc"": [-0.0, -0.0, 0.0], ""properties"": {""magmom"": 0.0}, ""label"": ""Sb"", ""xyz"": [0.0, 0.0, 0.0]}, {""species"": [{""element"": ""F"", ""occu"": 1}], ""abc"": [0.62902533, 0.88510029, 0.24252119], ""properties"": {""magmom"": 0.0}, ""label"": ""F"", ""xyz"": [4.24339023245365, 3.7153623524152737, 5.789427916309098]}, {""species"": [{""element"": ""F"", ""occu"": 1}], ""abc"": [0.88510029, 0.24252119, 0.62902533], ""properties"": {""magmom"": 0.0}, ""label"": ""F"", ""xyz"": [4.372832075338032, 1.066710895386941, 6.713287094628029]}, {""species"": [{""element"": ""F"", ""occu"": 1}], ""abc"": [0.7574788100000001, 0.37097467, 0.11489971], ""properties"": {""magmom"": 0.0}, ""label"": ""F"", ""xyz"": [3.98193530629011, 1.5765899822669323, 3.9620863128136596]}, {""species"": [{""element"": ""F"", ""occu"": 1}], ""abc"": [0.24252119, 0.62902533, 0.88510029], ""properties"": {""magmom"": 0.0}, ""label"": ""F"", ""xyz"": [2.1428337937098902, 2.6598426877330676, 7.325384387186341]}, {""species"": [{""element"": ""F"", ""occu"": 1}], ""abc"": [0.11489971, 0.7574788100000001, 0.37097467], ""properties"": {""magmom"": 0.0}, ""label"": ""F"", ""xyz"": [1.751937024661969, 3.1697217746130595, 4.574183605371972]}, {""species"": [{""element"": ""F"", ""occu"": 1}], ""abc"": [0.37097467, 0.11489971, 0.7574788100000001], ""properties"": {""magmom"": 0.0}, ""label"": ""F"", ""xyz"": [1.8813788675463505, 0.5210703175847261, 5.498042783690903]}]}",LiSbF6,148,4.8609,0.0,0.0009194954739918,0.0013572293039235,0.0006481961159036
mp-28145,"{""@module"": ""pymatgen.core.structure"", ""@class"": ""Structure"", ""charge"": 0, ""lattice"": {""matrix"": [[6.08432274, -0.0, 3.5127842400000002], [2.02810758, 5.73635492, 3.5127842400000002], [-1e-08, -1e-08, 7.02557151]], ""pbc"": [true, true, true], ""a"": 7.02557017766341, ""b"": 7.0255705277973, ""c"": 7.02557151, ""alpha"": 60.00000974607848, ""beta"": 60.00000807496154, ""gamma"": 60.00000697753516, ""volume"": 245.20533574991225}, ""properties"": {}, ""sites"": [{""species"": [{""element"": ""Rb"", ""occu"": 1}], ""abc"": [0.75, 0.75, 0.75], ""properties"": {""magmom"": 0.0}, ""label"": ""Rb"", ""xyz"": [6.0843227324999996, 4.3022661825, 10.5383549925]}, {""species"": [{""element"": ""Rb"", ""occu"": 1}], ""abc"": [0.25, 0.25, 0.25], ""properties"": {""magmom"": 0.0}, ""label"": ""Rb"", ""xyz"": [2.0281075774999997, 1.4340887275, 3.5127849975]}, {""species"": [{""element"": ""Pd"", ""occu"": 1}], ""abc"": [-0.0, -0.0, -0.0], ""properties"": {""magmom"": 0.0}, ""label"": ""Pd"", ""xyz"": [0.0, 0.0, 0.0]}, {""species"": [{""element"": ""Cl"", ""occu"": 1}], ""abc"": [0.23472344, 0.76527656, 0.76527656], ""properties"": {""magmom"": -0.0}, ""label"": ""Cl"", ""xyz"": [2.980196348082585, 4.38989795246391, 8.889289437206806]}, {""species"": [{""element"": ""Cl"", ""occu"": 1}], ""abc"": [0.23472344, 0.76527656, 0.23472344], ""properties"": {""magmom"": -0.0}, ""label"": ""Cl"", ""xyz"": [2.980196353388116, 4.389897957769441, 5.161850552793195]}, {""species"": [{""element"": ""Cl"", ""occu"": 1}], ""abc"": [0.76527656, 0.23472344, 0.76527656], ""properties"": {""magmom"": -0.0}, ""label"": ""Cl"", ""xyz"": [5.132233956611883, 1.3464569522305594, 8.889289437206806]}, {""species"": [{""element"": ""Cl"", ""occu"": 1}], ""abc"": [0.76527656, 0.23472344, 0.23472344], ""properties"": {""magmom"": -0.0}, ""label"": ""Cl"", ""xyz"": [5.132233961917414, 1.3464569575360905, 5.161850552793195]}, {""species"": [{""element"": ""Cl"", ""occu"": 1}], ""abc"": [0.76527656, 0.76527656, 0.23472344], ""properties"": {""magmom"": -0.0}, ""label"": ""Cl"", ""xyz"": [6.208252766182064, 4.389897957769441, 7.025569191212023]}, {""species"": [{""element"": ""Cl"", ""occu"": 1}], ""abc"": [0.23472344, 0.23472344, 0.76527656], ""properties"": {""magmom"": -0.0}, ""label"": ""Cl"", ""xyz"": [1.9041775438179354, 1.3464569522305594, 7.025570798787976]}]}",Rb2PdCl6,225,1.3127,0.0,0.0306629257593154,0.1199639949238217,0.0158065000437492
mp-999126,"{""@module"": ""pymatgen.core.structure"", ""@class"": ""Structure"", ""charge"": 0, ""lattice"": {""matrix"": [[-1.99464788, -3.45483107, -0.0], [-3.98929677, 0.0, 0.0], [-1.99464788, -1.15161137, -6.59358693]], ""pbc"": [true, true, true], ""a"": 3.9892954124037794, ""b"": 3.98929677, ""c"": 6.984283607942092, ""alpha"": 73.4058269211099, ""beta"": 73.40581990495984, ""gamma"": 59.999997117688864, ""volume"": 90.87509927533797}, ""properties"": {}, ""sites"": [{""species"": [{""element"": ""Na"", ""occu"": 1}], ""abc"": [0.5, 0.5, 0.5], ""properties"": {""magmom"": -0.0}, ""label"": ""Na"", ""xyz"": [-3.989296265, -2.30322122, -3.296793465]}, {""species"": [{""element"": ""Tb"", ""occu"": 1}], ""abc"": [0.0, 0.0, -0.0], ""properties"": {""magmom"": 0.0}, ""label"": ""Tb"", ""xyz"": [0.0, 0.0, 0.0]}, {""species"": [{""element"": ""S"", ""occu"": 1}], ""abc"": [0.7432487, 0.7432487, 0.77025389], ""properties"": {""magmom"": -0.0}, ""label"": ""S"", ""xyz"": [-5.983944370734708, -3.4548318390078383, -5.078735981885657]}, {""species"": [{""element"": ""S"", ""occu"": 1}], ""abc"": [0.2567513, 0.2567513, 0.22974611], ""properties"": {""magmom"": -0.0}, ""label"": ""S"", ""xyz"": [-1.994648159265292, -1.1516106009921616, -1.5148509481143422]}]}",NaTbS2,166,2.2759,0.0,0.0102951706202044,0.0171832789221525,0.0068711434659532
mp-5760,"{""@module"": ""pymatgen.core.structure"", ""@class"": ""Structure"", ""charge"": 0, ""lattice"": {""matrix"": [[3.94220416, 0.0, -0.0], [0.0, 3.94220416, 0.0], [0.0, 0.0, 6.9293486]], ""pbc"": [true, true, true], ""a"": 3.94220416, ""b"": 3.94220416, ""c"": 6.9293486, ""alpha"": 90.0, ""beta"": 90.0, ""gamma"": 90.0, ""volume"": 107.68882392888213}, ""properties"": {}, ""sites"": [{""species"": [{""element"": ""Nd"", ""occu"": 1}], ""abc"": [0.75, 0.75, 0.77194014], ""properties"": {""magmom"": -0.0}, ""label"": ""Nd"", ""xyz"": [2.9566531200000004, 2.9566531200000004, 5.349042328392804]}, {""species"": [{""element"": ""Nd"", ""occu"": 1}], ""abc"": [0.25, 0.25, 0.22805986], ""properties"": {""magmom"": -0.0}, ""label"": ""Nd"", ""xyz"": [0.98555104, 0.98555104, 1.580306271607196]}, {""species"": [{""element"": ""S"", ""occu"": 1}], ""abc"": [0.25, 0.25, 0.6486515900000001], ""properties"": {""magmom"": 0.0}, ""label"": ""S"", ""xyz"": [0.98555104, 0.98555104, 4.494732987054275]}, {""species"": [{""element"": ""S"", ""occu"": 1}], ""abc"": [0.75, 0.75, 0.35134841], ""properties"": {""magmom"": 0.0}, ""label"": ""S"", ""xyz"": [2.9566531200000004, 2.9566531200000004, 2.434615612945726]}, {""species"": [{""element"": ""F"", ""occu"": 1}], ""abc"": [0.25, 0.75, 0.0], ""properties"": {""magmom"": 0.0}, ""label"": ""F"", ""xyz"": [0.98555104, 2.9566531200000004, 0.0]}, {""species"": [{""element"": ""F"", ""occu"": 1}], ""abc"": [0.75, 0.25, 0.0], ""properties"": {""magmom"": 0.0}, ""label"": ""F"", ""xyz"": [2.9566531200000004, 0.98555104, 0.0]}]}",NdSF,129,1.2317,0.0,0.0147124754373789,0.0584184988477548,0.0073925224428912
mp-1170,"{""@module"": ""pymatgen.core.structure"", ""@class"": ""Structure"", ""charge"": 0, ""lattice"": {""matrix"": [[3.67430564, -0.0, 0.0], [-1.83715333, 3.18204164, 0.0], [0.0, -0.0, 6.22883184]], ""pbc"": [true, true, true], ""a"": 3.67430564, ""b"": 3.6743055611399518, ""c"": 6.22883184, ""alpha"": 90.0, ""beta"": 90.0, ""gamma"": 120.00000989302579, ""volume"": 72.82621589710445}, ""properties"": {}, ""sites"": [{""species"": [{""element"": ""Sn"", ""occu"": 1}], ""abc"": [0.0, -0.0, 0.0], ""properties"": {""magmom"": 0.0}, ""label"": ""Sn"", ""xyz"": [0.0, 0.0, 0.0]}, {""species"": [{""element"": ""S"", ""occu"": 1}], ""abc"": [0.333333, 0.666667, 0.23465347], ""properties"": {""magmom"": 0.0}, ""label"": ""S"", ""xyz"": [-2.177152990112674e-06, 2.12136215401388, 1.4616170053024848]}, {""species"": [{""element"": ""S"", ""occu"": 1}], ""abc"": [0.666667, 0.333333, 0.76534653], ""properties"": {""magmom"": 0.0}, ""label"": ""S"", ""xyz"": [1.83715448715299, 1.06067948598612, 4.767214834697515]}]}",SnS2,164,1.5815,0.0,0.015458834359336,0.0312754434586344,0.0096354795245193
mp-10933,"{""@module"": ""pymatgen.core.structure"", ""@class"": ""Structure"", ""charge"": 0, ""lattice"": {""matrix"": [[4.64996429, -1e-08, -0.0], [-2.32498266, 4.02698865, 0.0], [-0.0, 0.0, 7.77389009]], ""pbc"": [true, true, true], ""a"": 4.64996429, ""b"": 4.64996580165161, ""c"": 7.77389009, ""alpha"": 90.0, ""beta"": 90.0, ""gamma"": 119.99999669676093, ""volume"": 145.56883919291244}, ""properties"": {}, ""sites"": [{""species"": [{""element"": ""Nd"", ""occu"": 1}], ""abc"": [0.666667, 0.333333, 0.73274894], ""properties"": {""magmom"": -0.0}, ""label"": ""Nd"", ""xyz"": [2.3249842983156497, 1.3423282010037798, 5.6963097231240045]}, {""species"": [{""element"": ""Nd"", ""occu"": 1}], ""abc"": [0.333333, 0.666667, 0.26725106], ""properties"": {""magmom"": -0.0}, ""label"": ""Nd"", ""xyz"": [-2.668315650211639e-06, 2.68466043899622, 2.077580366875995]}, {""species"": [{""element"": ""Te"", ""occu"": 1}], ""abc"": [0.0, 0.0, -0.0], ""properties"": {""magmom"": 0.0}, ""label"": ""Te"", ""xyz"": [0.0, 0.0, 0.0]}, {""species"": [{""element"": ""S"", ""occu"": 1}], ""abc"": [0.333333, 0.666667, 0.63566804], ""properties"": {""magmom"": -0.0}, ""label"": ""S"", ""xyz"": [-2.668315650211639e-06, 2.68466043899622, 4.941613476685723]}, {""species"": [{""element"": ""S"", ""occu"": 1}], ""abc"": [0.666667, 0.333333, 0.36433196], ""properties"": {""magmom"": -0.0}, ""label"": ""S"", ""xyz"": [2.3249842983156497, 1.3423282010037798, 2.8322766133142765]}]}",Nd2TeS2,164,1.6518000000000002,0.0,0.0220089457979496,0.0412778988971522,0.0136714123805839
mp-862797,"{""@module"": ""pymatgen.core.structure"", ""@class"": ""Structure"", ""charge"": 0, ""lattice"": {""matrix"": [[0.0, 4.15195888, 4.15195888], [4.15195888, 0.0, 4.15195888], [4.15195888, 4.15195888, 0.0]], ""pbc"": [true, true, true], ""a"": 5.871756558511405, ""b"": 5.871756558511405, ""c"": 5.871756558511405, ""alpha"": 59.99999999999999, ""beta"": 59.99999999999999, ""gamma"": 59.99999999999999, ""volume"": 143.1492664263835}, ""properties"": {}, ""sites"": [{""species"": [{""element"": ""Rb"", ""occu"": 1}], ""abc"": [0.749999, 0.749999, 0.749999], ""properties"": {""magmom"": 0.0}, ""label"": ""Rb"", ""xyz"": [6.227930016082239, 6.227930016082239, 6.227930016082239]}, {""species"": [{""element"": ""Ac"", ""occu"": 1}], ""abc"": [0.249999, 0.249999, 0.249999], ""properties"": {""magmom"": 0.0}, ""label"": ""Ac"", ""xyz"": [2.0759711360822397, 2.0759711360822397, 2.0759711360822397]}, {""species"": [{""element"": ""Te"", ""occu"": 1}], ""abc"": [0.0, 0.0, 0.0], ""properties"": {""magmom"": -0.0}, ""label"": ""Te"", ""xyz"": [0.0, 0.0, 0.0]}, {""species"": [{""element"": ""Te"", ""occu"": 1}], ""abc"": [0.5, 0.5, 0.5], ""properties"": {""magmom"": -0.0}, ""label"": ""Te"", ""xyz"": [4.15195888, 4.15195888, 4.15195888]}]}",RbAcTe2,225,0.9114000000000004,0.0,0.0770255771638336,0.3299512183440659,0.0318676921090747
mp-27839,"{""@module"": ""pymatgen.core.structure"", ""@class"": ""Structure"", ""charge"": 0, ""lattice"": {""matrix"": [[6.00678279, 0.0, 3.46801698], [2.0022616, 5.66324827, 3.46801698], [-0.0, -0.0, 6.93603395]], ""pbc"": [true, true, true], ""a"": 6.936034981155192, ""b"": 6.936034476273952, ""c"": 6.93603395, ""alpha"": 60.00000246224334, ""beta"": 60.00000487015148, ""gamma"": 59.99999530425935, ""volume"": 235.94932487031517}, ""properties"": {}, ""sites"": [{""species"": [{""element"": ""K"", ""occu"": 1}], ""abc"": [0.25, 0.25, 0.25], ""properties"": {""magmom"": 0.0}, ""label"": ""K"", ""xyz"": [2.0022610975, 1.4158120675, 3.4680169774999996]}, {""species"": [{""element"": ""K"", ""occu"": 1}], ""abc"": [0.75, 0.75, 0.75], ""properties"": {""magmom"": 0.0}, ""label"": ""K"", ""xyz"": [6.0067832925, 4.2474362025, 10.404050932499999]}, {""species"": [{""element"": ""Ti"", ""occu"": 1}], ""abc"": [-0.0, 0.0, 0.0], ""properties"": {""magmom"": -0.0}, ""label"": ""Ti"", ""xyz"": [0.0, 0.0, 0.0]}, {""species"": [{""element"": ""Cl"", ""occu"": 1}], ""abc"": [0.23918284, 0.76081716, 0.76081716], ""properties"": {""magmom"": 0.0}, ""label"": ""Cl"", ""xyz"": [2.96007435106438, 4.308696465156314, 8.745070631502582]}, {""species"": [{""element"": ""Cl"", ""occu"": 1}], ""abc"": [0.23918284, 0.76081716, 0.23918284], ""properties"": {""magmom"": 0.0}, ""label"": ""Cl"", ""xyz"": [2.96007435106438, 4.308696465156314, 5.126997278497418]}, {""species"": [{""element"": ""Cl"", ""occu"": 1}], ""abc"": [0.76081716, 0.23918284, 0.76081716], ""properties"": {""magmom"": 0.0}, ""label"": ""Cl"", ""xyz"": [5.04897003893562, 1.3545518048436869, 8.745070631502582]}, {""species"": [{""element"": ""Cl"", ""occu"": 1}], ""abc"": [0.76081716, 0.23918284, 0.23918284], ""properties"": {""magmom"": 0.0}, ""label"": ""Cl"", ""xyz"": [5.04897003893562, 1.3545518048436869, 5.126997278497418]}, {""species"": [{""element"": ""Cl"", ""occu"": 1}], ""abc"": [0.76081716, 0.76081716, 0.23918284], ""properties"": {""magmom"": 0.0}, ""label"": ""Cl"", ""xyz"": [6.093418407113732, 4.308696465156314, 6.936033957608171]}, {""species"": [{""element"": ""Cl"", ""occu"": 1}], ""abc"": [0.23918284, 0.23918284, 0.76081716], ""properties"": {""magmom"": 0.0}, ""label"": ""Cl"", ""xyz"": [1.9156259828862676, 1.3545518048436869, 6.936033952391829]}]}",K2TiCl6,225,2.0816,0.0,0.0127064696023503,0.0267870023460011,0.0076320736121492