id,structure_json,formula,spacegroup,bandgap,energy_above_hull,k_1064,k_755,k_1500
mp-7958,"{""@module"": ""pymatgen.core.structure"", ""@class"": ""Structure"", ""charge"": 0, ""lattice"": {""matrix"": [[6.29406082, -1.8575005, -0.01088876], [6.29406082, 1.8575005, -0.01088876], [5.75136331, 0.0, 3.16029338]], ""pbc"": [true, true, true], ""a"": 6.562440725709731, ""b"": 6.562440725709731, ""c"": 6.562441174691472, ""alpha"": 32.88466545620839, ""beta"": 32.88466545620839, ""gamma"": 32.88467588784076, ""volume"": 74.12803015588618}, ""properties"": {}, ""sites"": [{""species"": [{""element"": ""K"", ""occu"": 1}], ""abc"": [0.0, 0.0, 0.0], ""properties"": {""magmom"": -0.0}, ""label"": ""K"", ""xyz"": [0.0, 0.0, 0.0]}, {""species"": [{""element"": ""La"", ""occu"": 1}], ""abc"": [0.5, 0.5, 0.5], ""properties"": {""magmom"": -0.0}, ""label"": ""La"", ""xyz"": [9.169742475, 0.0, 1.56925793]}, {""species"": [{""element"": ""O"", ""occu"": 1}], ""abc"": [0.76902246, 0.76902246, 0.76902246], ""properties"": {""magmom"": 0.0}, ""label"": ""O"", ""xyz"": [14.103475831381978, 0.0, 2.4135891874062154]}, {""species"": [{""element"": ""O"", ""occu"": 1}], ""abc"": [0.23097754, 0.23097754, 0.23097754], ""properties"": {""magmom"": 0.0}, ""label"": ""O"", ""xyz"": [4.236009118618023, 0.0, 0.7249266725937845]}]}",KLaO2,166,3.8641,0.0,0.0033658710036398,0.0051347299615276,0.0022858612596634
mp-22859,"{""@module"": ""pymatgen.core.structure"", ""@class"": ""Structure"", ""charge"": 0, ""lattice"": {""matrix"": [[4.72428635, -0.00021136, -1.8413289], [-0.71944897, 4.66918277, -1.84132887], [-0.03105888, -0.03620813, 6.88858205]], ""pbc"": [true, true, true], ""a"": 5.070441172072168, ""b"": 5.07044047076725, ""c"": 6.888747225895806, ""alpha"": 111.55174888985859, ""beta"": 111.55175722200553, ""gamma"": 90.02089924104857, ""volume"": 151.3211478162347}, ""properties"": {}, ""sites"": [{""species"": [{""element"": ""Hg"", ""occu"": 1}], ""abc"": [0.8884379800000001, 0.8884379800000001, 0.77664109], ""properties"": {""magmom"": -0.0}, ""label"": ""Hg"", ""xyz"": [3.533928029698314, 4.11997080662809, 2.07814284165633]}, {""species"": [{""element"": ""Hg"", ""occu"": 1}], ""abc"": [0.11156202, 0.11156202, 0.22335891], ""properties"": {""magmom"": -0.0}, ""label"": ""Hg"", ""xyz"": [0.43985047030168684, 0.5127924733719099, 1.1277814383436702]}, {""species"": [{""element"": ""I"", ""occu"": 1}], ""abc"": [0.65477992, 0.65477992, 0.30860253], ""properties"": {""magmom"": 0.0}, ""label"": ""I"", ""xyz"": [2.6127022503424433, 3.0459748057975182, -0.28549651128539155]}, {""species"": [{""element"": ""I"", ""occu"": 1}], ""abc"": [0.34522008, 0.34522008, 0.6913974700000001], ""properties"": {""magmom"": 0.0}, ""label"": ""I"", ""xyz"": [1.3610762496575566, 1.5867884742024818, 3.491420791285393]}]}",HgI,139,1.8457,0.0,0.0496176400781,0.1355898739043346,0.0273095406046159
mp-1222618,"{""@module"": ""pymatgen.core.structure"", ""@class"": ""Structure"", ""charge"": 0.0, ""lattice"": {""matrix"": [[6.93768821, -2.08511383, 0.00136149], [6.93768821, 2.08511383, 0.00136149], [6.31031231, 0.0, 3.55797461]], ""pbc"": [true, true, true], ""a"": 7.244254222270592, ""b"": 7.244254222270592, ""c"": 7.2442546045222755, ""alpha"": 33.456171325426226, ""beta"": 33.456171325426226, ""gamma"": 33.45617386482636, ""volume"": 102.90256553812058}, ""properties"": {}, ""sites"": [{""species"": [{""element"": ""Li"", ""occu"": 1}], ""abc"": [0.12714294, 0.12714294, 0.12714294], ""properties"": {""magmom"": 0.0}, ""label"": ""Li"", ""xyz"": [2.5664678110570662, 0.0, 0.45271756004351466]}, {""species"": [{""element"": ""Li"", ""occu"": 1}], ""abc"": [0.62398141, 0.62398141, 0.62398141], ""properties"": {""magmom"": -0.0}, ""label"": ""Li"", ""xyz"": [12.595494515566509, 0.0, 2.2218091027918017]}, {""species"": [{""element"": ""Zn"", ""occu"": 1}], ""abc"": [0.8754031800000001, 0.8754031800000001, 0.8754031800000001], ""properties"": {""magmom"": -0.0}, ""label"": ""Zn"", ""xyz"": [17.67061610473216, 0.0, 3.117045993304336]}, {""species"": [{""element"": ""Cd"", ""occu"": 1}], ""abc"": [0.37534302, 0.37534302, 0.37534302], ""properties"": {""magmom"": 0.0}, ""label"": ""Cd"", ""xyz"": [7.576557368698165, 0.0, 1.3364829867373218]}, {""species"": [{""element"": ""P"", ""occu"": 1}], ""abc"": [0.9945185400000001, 0.9945185400000001, 0.9945185400000001], ""properties"": {""magmom"": 0.0}, ""label"": ""P"", ""xyz"": [20.075041684654057, 0.0, 3.541179768588319]}, {""species"": [{""element"": ""P"", ""occu"": 1}], ""abc"": [0.50360991, 0.50360991, 0.50360991], ""properties"": {""magmom"": -0.0}, ""label"": ""P"", ""xyz"": [10.165712884603314, 0.0, 1.793202592837117]}]}",Li2ZnCdP2,160,0.8987000000000003,0.0,0.2513210459485939,0.4730202589252061,0.1648087697817103
mp-15784,"{""@module"": ""pymatgen.core.structure"", ""@class"": ""Structure"", ""charge"": 0, ""lattice"": {""matrix"": [[-2.04516501, -3.54232969, 0.0], [2.04516501, -3.54232969, 0.0], [-0.0, -2.36155381, 7.3268736]], ""pbc"": [true, true, true], ""a"": 4.090330005119855, ""b"": 4.090330005119855, ""c"": 7.698052555543023, ""alpha"": 74.59304686771655, ""beta"": 74.59304686771655, ""gamma"": 60.00000024068043, ""volume"": 106.16125112827}, ""properties"": {}, ""sites"": [{""species"": [{""element"": ""K"", ""occu"": 1}], ""abc"": [0.0, -0.0, -0.0], ""properties"": {""magmom"": -0.001}, ""label"": ""K"", ""xyz"": [0.0, 0.0, 0.0]}, {""species"": [{""element"": ""Gd"", ""occu"": 1}], ""abc"": [0.5, 0.5, 0.5], ""properties"": {""magmom"": 6.894}, ""label"": ""Gd"", ""xyz"": [0.0, -4.723106595, 3.6634368]}, {""species"": [{""element"": ""S"", ""occu"": 1}], ""abc"": [0.23471181, 0.23471181, 0.29586557], ""properties"": {""magmom"": -0.03}, ""label"": ""S"", ""xyz"": [0.0, -2.3615556903945993, 2.167769633981952]}, {""species"": [{""element"": ""S"", ""occu"": 1}], ""abc"": [0.76528819, 0.76528819, 0.70413443], ""properties"": {""magmom"": -0.03}, ""label"": ""S"", ""xyz"": [0.0, -7.084657499605401, 5.159103966018048]}]}",KGdS2,166,1.7341999999999995,0.0,0.0118460695199697,0.0220213809082588,0.0078435679091368
mp-5693,"{""@module"": ""pymatgen.core.structure"", ""@class"": ""Structure"", ""charge"": 0, ""lattice"": {""matrix"": [[3.40263888, -0.03062618, 5.84533085], [1.55396011, 3.02722528, 5.84533085], [-0.05065896, -0.03062618, 6.76337856]], ""pbc"": [true, true, true], ""a"": 6.763636747826628, ""b"": 6.763636423204902, ""c"": 6.763637618840718, ""alpha"": 30.63302756709688, ""beta"": 30.63303672041818, ""gamma"": 30.633028650181213, ""volume"": 71.22486759498263}, ""properties"": {}, ""sites"": [{""species"": [{""element"": ""Na"", ""occu"": 1}], ""abc"": [0.5, 0.5, 0.5], ""properties"": {""magmom"": 0.0}, ""label"": ""Na"", ""xyz"": [2.452970015, 1.48298646, 9.22702013]}, {""species"": [{""element"": ""Cr"", ""occu"": 1}], ""abc"": [0.0, -0.0, -0.0], ""properties"": {""magmom"": 3.025}, ""label"": ""Cr"", ""xyz"": [0.0, 0.0, 0.0]}, {""species"": [{""element"": ""S"", ""occu"": 1}], ""abc"": [0.73373559, 0.73373559, 0.73373559], ""properties"": {""magmom"": -0.078}, ""label"": ""S"", ""xyz"": [3.599662802416668, 2.1762398903802227, 13.540386118054853]}, {""species"": [{""element"": ""S"", ""occu"": 1}], ""abc"": [0.26626441, 0.26626441, 0.26626441], ""properties"": {""magmom"": -0.078}, ""label"": ""S"", ""xyz"": [1.3062772275833323, 0.7897330296197773, 4.9136541419451465]}]}",NaCrS2,166,1.0077999999999996,0.0,0.2458063998070882,0.6437543537724432,0.0496205306629143
mp-27726,"{""@module"": ""pymatgen.core.structure"", ""@class"": ""Structure"", ""charge"": 0, ""lattice"": {""matrix"": [[4.20825083, -0.03761526, 0.0], [-0.17690142, 4.20470011, 0.0], [0.0, 0.0, 5.90349217]], ""pbc"": [true, true, true], ""a"": 4.208418937793688, ""b"": 4.20841978982991, ""c"": 5.90349217, ""alpha"": 90.0, ""beta"": 90.0, ""gamma"": 92.92126674739784, ""volume"": 104.41966208548168}, ""properties"": {}, ""sites"": [{""species"": [{""element"": ""S"", ""occu"": 1}], ""abc"": [0.49613037, 0.50386963, 0.5], ""properties"": {""magmom"": 0.0}, ""label"": ""S"", ""xyz"": [1.9987057882988324, 2.099958615825213, 2.951746085]}, {""species"": [{""element"": ""S"", ""occu"": 1}], ""abc"": [-0.00386963, 0.00386963, -0.0], ""properties"": {""magmom"": 0.0}, ""label"": ""S"", ""xyz"": [-0.0169689167011675, 0.016416190825213103, 0.0]}, {""species"": [{""element"": ""O"", ""occu"": 1}], ""abc"": [0.77356722, 0.53369759, 0.64201496], ""properties"": {""magmom"": -0.0}, ""label"": ""O"", ""xyz"": [3.1609530341042147, 2.2149403832719576, 3.790130289382863]}, {""species"": [{""element"": ""O"", ""occu"": 1}], ""abc"": [0.46630241, 0.22643278, 0.35798504000000003], ""properties"": {""magmom"": -0.0}, ""label"": ""O"", ""xyz"": [1.9222612235969527, 0.9345418485828292, 2.113361880617137]}, {""species"": [{""element"": ""O"", ""occu"": 1}], ""abc"": [0.9663024100000001, 0.72643278, 0.14201496], ""properties"": {""magmom"": -0.0}, ""label"": ""O"", ""xyz"": [3.9379359285969526, 3.0180842735828293, 0.8383842043828631]}, {""species"": [{""element"": ""O"", ""occu"": 1}], ""abc"": [0.27356722, 0.03369759, 0.85798504], ""properties"": {""magmom"": -0.0}, ""label"": ""O"", ""xyz"": [1.1452783291042148, 0.1313979582719577, 5.065107965617137]}]}",SO2,41,2.865,0.0,0.0031078480216149,0.0050225636794749,0.0021125899256999
mp-675349,"{""@module"": ""pymatgen.core.structure"", ""@class"": ""Structure"", ""charge"": 0, ""lattice"": {""matrix"": [[2.03727919, -3.52866929, 0.0], [2.03727919, 3.52866929, -0.0], [0.0, -0.0, 6.3884855]], ""pbc"": [true, true, true], ""a"": 4.074556841694095, ""b"": 4.074556841694095, ""c"": 6.3884855, ""alpha"": 90.0, ""beta"": 90.0, ""gamma"": 119.9999750221902, ""volume"": 91.85216894378837}, ""properties"": {}, ""sites"": [{""species"": [{""element"": ""Dy"", ""occu"": 1}], ""abc"": [0.0, 0.0, 0.51159266], ""properties"": {""magmom"": 0.0}, ""label"": ""Dy"", ""xyz"": [0.0, 0.0, 3.2683022903164303]}, {""species"": [{""element"": ""Cu"", ""occu"": 1}], ""abc"": [0.666667, 0.333333, 0.12787164], ""properties"": {""magmom"": -0.0}, ""label"": ""Cu"", ""xyz"": [2.03727919, -1.17622544911286, 0.81690611800122]}, {""species"": [{""element"": ""Se"", ""occu"": 1}], ""abc"": [0.333333, 0.666667, 0.23881128000000001], ""properties"": {""magmom"": -0.0}, ""label"": ""Se"", ""xyz"": [2.03727919, 1.17622544911286, 1.52564239951644]}, {""species"": [{""element"": ""Se"", ""occu"": 1}], ""abc"": [0.666667, 0.333333, 0.74782242], ""properties"": {""magmom"": -0.0}, ""label"": ""Se"", ""xyz"": [2.03727919, -1.17622544911286, 4.77745268674491]}]}",DyCuSe2,156,1.1191999999999998,0.0,0.1363657277955715,0.3479898481169529,0.037653080235023
mp-998761,"{""@module"": ""pymatgen.core.structure"", ""@class"": ""Structure"", ""charge"": 0, ""lattice"": {""matrix"": [[4.08734836, -0.0, 0.0], [0.0, 4.08734836, 0.0], [-0.0, 0.0, 4.08737585]], ""pbc"": [true, true, true], ""a"": 4.08734836, ""b"": 4.08734836, ""c"": 4.08737585, ""alpha"": 90.0, ""beta"": 90.0, ""gamma"": 90.0, ""volume"": 68.28540381625542}, ""properties"": {}, ""sites"": [{""species"": [{""element"": ""Tl"", ""occu"": 1}], ""abc"": [0.5, 0.5, 0.5], ""properties"": {""magmom"": 0.002}, ""label"": ""Tl"", ""xyz"": [2.04367418, 2.04367418, 2.043687925]}, {""species"": [{""element"": ""Ni"", ""occu"": 1}], ""abc"": [0.0, 0.0, 0.0], ""properties"": {""magmom"": -1.796}, ""label"": ""Ni"", ""xyz"": [0.0, 0.0, 0.0]}, {""species"": [{""element"": ""F"", ""occu"": 1}], ""abc"": [0.5, -0.0, 0.0], ""properties"": {""magmom"": -0.06}, ""label"": ""F"", ""xyz"": [2.04367418, 0.0, 0.0]}, {""species"": [{""element"": ""F"", ""occu"": 1}], ""abc"": [-0.0, 0.5, 0.0], ""properties"": {""magmom"": -0.06}, ""label"": ""F"", ""xyz"": [0.0, 2.04367418, 0.0]}, {""species"": [{""element"": ""F"", ""occu"": 1}], ""abc"": [0.0, -0.0, 0.5], ""properties"": {""magmom"": -0.06}, ""label"": ""F"", ""xyz"": [0.0, 0.0, 2.043687925]}]}",TlNiF3,221,0.3083999999999998,0.000827895,0.0533476238204389,0.053734600159305,0.0464856054805942
mp-9518,"{""@module"": ""pymatgen.core.structure"", ""@class"": ""Structure"", ""charge"": 0, ""lattice"": {""matrix"": [[0.382422999999999, 2.001142, -3.4449170000000002], [0.382422999999999, -2.001142, -3.4449170000000002], [-10.089139, 0.0, -3.4449170000000002]], ""pbc"": [true, true, true], ""a"": 4.002283072445276, ""b"": 4.002283072445276, ""c"": 10.661058995156624, ""alpha"": 79.18107914251756, ""beta"": 79.18107914251756, ""gamma"": 60.00001533288071, ""volume"": 144.3770400453106}, ""properties"": {}, ""sites"": [{""species"": [{""element"": ""Nd"", ""occu"": 1}], ""abc"": [0.618695, 0.618695, 0.143915], ""properties"": {""magmom"": 0.0}, ""label"": ""Nd"", ""xyz"": [-0.9787720432150009, 0.0, -4.758481076685]}, {""species"": [{""element"": ""Nd"", ""occu"": 1}], ""abc"": [0.381305, 0.381305, 0.856085], ""properties"": {""magmom"": 0.0}, ""label"": ""Nd"", ""xyz"": [-8.345520956785, 0.0, -5.576269923315]}, {""species"": [{""element"": ""Zn"", ""occu"": 1}], ""abc"": [0.196123, 0.196123, 0.411630999999999], ""properties"": {""magmom"": 0.0}, ""label"": ""Zn"", ""xyz"": [-4.00299848365099, 0.0, -2.7692895432089966]}, {""species"": [{""element"": ""Zn"", ""occu"": 1}], ""abc"": [0.803877, 0.803877, 0.588368999999999], ""properties"": {""magmom"": 0.0}, ""label"": ""Zn"", ""xyz"": [-5.321294516348992, 0.0, -7.565461456790997]}, {""species"": [{""element"": ""P"", ""occu"": 1}], ""abc"": [0.11418, 0.11418, 0.65746], ""properties"": {""magmom"": -0.0}, ""label"": ""P"", ""xyz"": [-6.54587521066, 0.0, -3.0515763769400004]}, {""species"": [{""element"": ""P"", ""occu"": 1}], ""abc"": [0.88582, 0.88582, 0.34254], ""properties"": {""magmom"": -0.0}, ""label"": ""P"", ""xyz"": [-2.778417789340002, 0.0, -7.283174623060001]}, {""species"": [{""element"": ""O"", ""occu"": 1}], ""abc"": [0.694933, 0.694933, 0.915200999999999], ""properties"": {""magmom"": -0.0}, ""label"": ""O"", ""xyz"": [-8.70207337662099, 0.0, -7.940764494438997]}, {""species"": [{""element"": ""O"", ""occu"": 1}], ""abc"": [0.305067, 0.305067, 0.084799], ""properties"": {""magmom"": -0.0}, ""label"": ""O"", ""xyz"": [-0.6222196233790006, 0.0, -2.3939865055609997]}]}",NdZnPO,166,1.2344999999999997,0.0,0.0292489440754002,0.0884556640583864,0.0179058951538954
mp-10969,"{""@module"": ""pymatgen.core.structure"", ""@class"": ""Structure"", ""charge"": 0, ""lattice"": {""matrix"": [[3.34194157, -0.0053941300000000005, 4.08259244], [1.45413357, 3.00900333, 4.08259244], [-0.00861382, -0.00539414, 5.27598973]], ""pbc"": [true, true, true], ""a"": 5.275998823453023, ""b"": 5.275999100691469, ""c"": 5.275999519115483, ""alpha"": 39.39670183472322, ""beta"": 39.3967019192151, ""gamma"": 39.396691511844, ""volume"": 53.243859006231816}, ""properties"": {}, ""sites"": [{""species"": [{""element"": ""Cd"", ""occu"": 1}], ""abc"": [-0.0, 0.0, -0.0], ""properties"": {""magmom"": 0.0}, ""label"": ""Cd"", ""xyz"": [0.0, 0.0, 0.0]}, {""species"": [{""element"": ""C"", ""occu"": 1}], ""abc"": [0.5, 0.5, 0.5], ""properties"": {""magmom"": 0.0}, ""label"": ""C"", ""xyz"": [2.39373066, 1.49910753, 6.7205873050000005]}, {""species"": [{""element"": ""N"", ""occu"": 1}], ""abc"": [0.5843668200000001, 0.5843668200000001, 0.5843668200000001], ""properties"": {""magmom"": -0.0}, ""label"": ""N"", ""xyz"": [2.7976335474414027, 1.7520574002883094, 7.8545764639104405]}, {""species"": [{""element"": ""N"", ""occu"": 1}], ""abc"": [0.41563318, 0.41563318, 0.41563318], ""properties"": {""magmom"": -0.0}, ""label"": ""N"", ""xyz"": [1.9898277725585973, 1.2461576597116908, 5.58659814608956]}]}",CdCN2,166,2.3103,0.0,0.005963965501536,0.0094804890449421,0.0040184332138387
mp-15782,"{""@module"": ""pymatgen.core.structure"", ""@class"": ""Structure"", ""charge"": 0, ""lattice"": {""matrix"": [[7.44669591, -2.11099348, -0.00551689], [7.44669591, 2.11099348, -0.00551689], [6.85094291, 0.0, 3.60196985]], ""pbc"": [true, true, true], ""a"": 7.740129448832785, ""b"": 7.740129448832785, ""c"": 7.74012955682192, ""alpha"": 31.653997004752718, ""beta"": 31.653997004752718, ""gamma"": 31.65399559259593, ""volume"": 113.40497648238076}, ""properties"": {}, ""sites"": [{""species"": [{""element"": ""K"", ""occu"": 1}], ""abc"": [0.5, 0.5, 0.5], ""properties"": {""magmom"": -0.0}, ""label"": ""K"", ""xyz"": [10.872167365, 0.0, 1.795468035]}, {""species"": [{""element"": ""Pr"", ""occu"": 1}], ""abc"": [0.0, 0.0, -0.0], ""properties"": {""magmom"": 0.0}, ""label"": ""Pr"", ""xyz"": [0.0, 0.0, 0.0]}, {""species"": [{""element"": ""S"", ""occu"": 1}], ""abc"": [0.73696416, 0.73696416, 0.73696416], ""properties"": {""magmom"": 0.0}, ""label"": ""S"", ""xyz"": [16.024795379053273, 0.0, 2.646391184441251]}, {""species"": [{""element"": ""S"", ""occu"": 1}], ""abc"": [0.26303584, 0.26303584, 0.26303584], ""properties"": {""magmom"": 0.0}, ""label"": ""S"", ""xyz"": [5.719539350946723, 0.0, 0.9445448855587488]}]}",KPrS2,166,2.297,0.0,0.0110869618339154,0.0186609488959986,0.0071334282310754
mp-8301,"{""@module"": ""pymatgen.core.structure"", ""@class"": ""Structure"", ""charge"": 0, ""lattice"": {""matrix"": [[3.719749799999999, -0.0, -0.0], [-1.859874899999999, 3.22139818, -0.0], [-0.0, -0.0, 6.43999874]], ""pbc"": [true, true, true], ""a"": 3.719749799999999, ""b"": 3.7197501095849597, ""c"": 6.43999874, ""alpha"": 90.0, ""beta"": 90.0, ""gamma"": 119.9999972468613, ""volume"": 77.16918622007132}, ""properties"": {}, ""sites"": [{""species"": [{""element"": ""Gd"", ""occu"": 1}], ""abc"": [0.333333, 0.666667, 0.21452808], ""properties"": {""magmom"": 6.905}, ""label"": ""Gd"", ""xyz"": [-1.8598748996456749e-06, 2.14759986046606, 1.3815605648946192]}, {""species"": [{""element"": ""Gd"", ""occu"": 1}], ""abc"": [0.666667, 0.333333, 0.78547192], ""properties"": {""magmom"": 6.905}, ""label"": ""Gd"", ""xyz"": [1.8598767598748998, 1.07379831953394, 5.058438175105381]}, {""species"": [{""element"": ""C"", ""occu"": 1}], ""abc"": [0.0, 0.0, -0.0], ""properties"": {""magmom"": -0.105}, ""label"": ""C"", ""xyz"": [0.0, 0.0, 0.0]}, {""species"": [{""element"": ""F"", ""occu"": 1}], ""abc"": [0.333333, 0.666667, 0.6125654700000001], ""properties"": {""magmom"": -0.006}, ""label"": ""F"", ""xyz"": [-1.8598748996456749e-06, 2.14759986046606, 3.944920854967508]}, {""species"": [{""element"": ""F"", ""occu"": 1}], ""abc"": [0.666667, 0.333333, 0.38743453], ""properties"": {""magmom"": -0.006}, ""label"": ""F"", ""xyz"": [1.8598767598748998, 1.07379831953394, 2.4950778850324924]}]}",Gd2CF2,164,0.7565,0.0,0.4053561331078525,1.0019176140923065,0.1371276585336723
mp-15786,"{""@module"": ""pymatgen.core.structure"", ""@class"": ""Structure"", ""charge"": 0, ""lattice"": {""matrix"": [[7.39625248, -2.00906631, -0.00423414], [7.39625248, 2.00906631, -0.00423414], [6.85249109, -0.0, 3.43282386]], ""pbc"": [true, true, true], ""a"": 7.664262268074124, ""b"": 7.664262268074124, ""c"": 7.664262116623797, ""alpha"": 30.393489940820547, ""beta"": 30.393489940820547, ""gamma"": 30.393487868578443, ""volume"": 102.13709948724274}, ""properties"": {}, ""sites"": [{""species"": [{""element"": ""K"", ""occu"": 1}], ""abc"": [0.5, 0.5, 0.5], ""properties"": {""magmom"": 0.0}, ""label"": ""K"", ""xyz"": [10.822498025, 0.0, 1.71217779]}, {""species"": [{""element"": ""Ho"", ""occu"": 1}], ""abc"": [0.0, 0.0, -0.0], ""properties"": {""magmom"": 0.0}, ""label"": ""Ho"", ""xyz"": [0.0, 0.0, 0.0]}, {""species"": [{""element"": ""S"", ""occu"": 1}], ""abc"": [0.7338684400000001, 0.7338684400000001, 0.7338684400000001], ""properties"": {""magmom"": -0.0}, ""label"": ""S"", ""xyz"": [15.884579485019664, 0.0, 2.5130264874998955]}, {""species"": [{""element"": ""S"", ""occu"": 1}], ""abc"": [0.26613156, 0.26613156, 0.26613156], ""properties"": {""magmom"": -0.0}, ""label"": ""S"", ""xyz"": [5.760416564980337, 0.0, 0.9113290925001049]}]}",KHoS2,166,2.3793000000000006,0.0,0.0091736608971761,0.0153340407503971,0.0061768625655032