id,structure_json,formula,spacegroup,bandgap,energy_above_hull,k_1064,k_755,k_1500
mp-1217269,"{""@module"": ""pymatgen.core.structure"", ""@class"": ""Structure"", ""charge"": 0, ""lattice"": {""matrix"": [[-2.18566192, -4.0435734, -0.05612708], [-2.18566192, 4.0435734, 0.05612708], [0.0, -0.07312074, -5.28529]], ""pbc"": [true, true, true], ""a"": 4.596820000699936, ""b"": 4.596820000699936, ""c"": 5.285795779891439, ""alpha"": 91.39685702265949, ""beta"": 88.60314297734054, ""gamma"": 123.21975021022214, ""volume"": 93.40362394518606}, ""properties"": {}, ""sites"": [{""species"": [{""element"": ""Te"", ""occu"": 1}], ""abc"": [0.75377846, 0.75377846, 0.666632999999999], ""properties"": {""magmom"": 0.0}, ""label"": ""Te"", ""xyz"": [-3.2950097522764863, -0.04874469826841993, -3.523348728569995]}, {""species"": [{""element"": ""Se"", ""occu"": 1}], ""abc"": [0.23213708, 0.014085460000000001, 0.00687508], ""properties"": {""magmom"": -0.0}, ""label"": ""Se"", ""xyz"": [-0.5381592295236767, -0.8822104413960671, -0.048575392293069605]}, {""species"": [{""element"": ""Se"", ""occu"": 1}], ""abc"": [0.014085460000000001, 0.23213708, 0.32639192], ""properties"": {""magmom"": -0.0}, ""label"": ""Se"", ""xyz"": [-0.5381592295236767, 0.8578417117384871, -1.7128373501369303]}]}",TeSe2,5,0.7844000000000002,0.0,1.0873631305019114,1.6804773431799491,0.3552041012027519
mp-16032,"{""@module"": ""pymatgen.core.structure"", ""@class"": ""Structure"", ""charge"": 0, ""lattice"": {""matrix"": [[3.91957118, -0.0, -1.179189099999999], [-0.35475548, 3.90348477, -1.179189099999999], [0.008476870000000001, 0.009281610000000001, 7.13200421]], ""pbc"": [true, true, true], ""a"": 4.093107031173922, ""b"": 4.093107833147179, ""c"": 7.132015287214891, ""alpha"": 106.67561469546136, ""beta"": 106.67561337008453, ""gamma"": 90.00000828235706, ""volume"": 109.20536757818641}, ""properties"": {}, ""sites"": [{""species"": [{""element"": ""Pr"", ""occu"": 1}], ""abc"": [0.6595748300000001, 0.6595748300000001, 0.31915165], ""properties"": {""magmom"": 0.0}, ""label"": ""Pr"", ""xyz"": [2.353968116356167, 2.5776025447264956, 0.7206640110877418]}, {""species"": [{""element"": ""Pr"", ""occu"": 1}], ""abc"": [0.34042517, 0.34042517, 0.68084835], ""properties"": {""magmom"": 0.0}, ""label"": ""Pr"", ""xyz"": [1.2193244536438335, 1.3351638352735042, 4.05296199891226]}, {""species"": [{""element"": ""Te"", ""occu"": 1}], ""abc"": [0.0, -0.0, -0.0], ""properties"": {""magmom"": -0.0}, ""label"": ""Te"", ""xyz"": [0.0, 0.0, 0.0]}, {""species"": [{""element"": ""O"", ""occu"": 1}], ""abc"": [0.25, 0.75, 0.5], ""properties"": {""magmom"": 0.0}, ""label"": ""O"", ""xyz"": [0.71806462, 2.9322543825, 2.386813005000001]}, {""species"": [{""element"": ""O"", ""occu"": 1}], ""abc"": [0.75, 0.25, 0.5], ""properties"": {""magmom"": 0.0}, ""label"": ""O"", ""xyz"": [2.85522795, 0.9805119975, 2.386813005000001]}]}",Pr2TeO2,139,1.6738999999999995,0.0,0.0176724201709057,0.0393371196313299,0.0111327935141606
mp-505297,"{""@module"": ""pymatgen.core.structure"", ""@class"": ""Structure"", ""charge"": 0, ""lattice"": {""matrix"": [[3.78181657, -1e-08, 2.183432], [1.26060485, 3.5655303, 2.183432], [-1e-08, -1e-08, 4.36686603]], ""pbc"": [true, true, true], ""a"": 4.366865222072987, ""b"": 4.3668645738888685, ""c"": 4.36686603, ""alpha"": 60.000004514741796, ""beta"": 60.00000938861236, ""gamma"": 60.000010219724636, ""volume"": 58.88361462561361}, ""properties"": {}, ""sites"": [{""species"": [{""element"": ""Nb"", ""occu"": 1}], ""abc"": [-0.0, 0.0, 0.0], ""properties"": {""magmom"": -0.0}, ""label"": ""Nb"", ""xyz"": [0.0, 0.0, 0.0]}, {""species"": [{""element"": ""Sb"", ""occu"": 1}], ""abc"": [0.5, 0.5, 0.5], ""properties"": {""magmom"": 0.0}, ""label"": ""Sb"", ""xyz"": [2.521210705, 1.78276514, 4.366865015]}, {""species"": [{""element"": ""Ru"", ""occu"": 1}], ""abc"": [0.25, 0.25, 0.25], ""properties"": {""magmom"": -0.0}, ""label"": ""Ru"", ""xyz"": [1.2606053525, 0.89138257, 2.1834325075]}]}",NbSbRu,216,0.4653,0.0,0.1853330477610076,1.8914361746363584,0.0890249321773764