id,structure_json,formula,spacegroup,bandgap,energy_above_hull,k_1064,k_755,k_1500
mp-7060,"{""@module"": ""pymatgen.core.structure"", ""@class"": ""Structure"", ""charge"": 0, ""lattice"": {""matrix"": [[4.045602, 0.0, 0.0], [0.0, 4.045602, 0.0], [0.0, 0.0, 8.958775]], ""pbc"": [true, true, true], ""a"": 4.045602, ""b"": 4.045602, ""c"": 8.958775, ""alpha"": 90.0, ""beta"": 90.0, ""gamma"": 90.0, ""volume"": 146.62733461290037}, ""properties"": {}, ""sites"": [{""species"": [{""element"": ""La"", ""occu"": 1}], ""abc"": [0.0, 0.5, 0.861231], ""properties"": {""magmom"": -0.0}, ""label"": ""La"", ""xyz"": [0.0, 2.022801, 7.715574752024999]}, {""species"": [{""element"": ""La"", ""occu"": 1}], ""abc"": [0.5, 0.0, 0.138769], ""properties"": {""magmom"": -0.0}, ""label"": ""La"", ""xyz"": [2.022801, 0.0, 1.243200247975]}, {""species"": [{""element"": ""Zn"", ""occu"": 1}], ""abc"": [0.0, 0.0, 0.5], ""properties"": {""magmom"": 0.0}, ""label"": ""Zn"", ""xyz"": [0.0, 0.0, 4.4793875]}, {""species"": [{""element"": ""Zn"", ""occu"": 1}], ""abc"": [0.5, 0.5, 0.5], ""properties"": {""magmom"": 0.0}, ""label"": ""Zn"", ""xyz"": [2.022801, 2.022801, 4.4793875]}, {""species"": [{""element"": ""P"", ""occu"": 1}], ""abc"": [0.5, 0.0, 0.663926], ""properties"": {""magmom"": 0.0}, ""label"": ""P"", ""xyz"": [2.022801, 0.0, 5.947963650649999]}, {""species"": [{""element"": ""P"", ""occu"": 1}], ""abc"": [0.0, 0.5, 0.336074], ""properties"": {""magmom"": 0.0}, ""label"": ""P"", ""xyz"": [0.0, 2.022801, 3.0108113493499995]}, {""species"": [{""element"": ""O"", ""occu"": 1}], ""abc"": [0.5, 0.5, 0.0], ""properties"": {""magmom"": 0.0}, ""label"": ""O"", ""xyz"": [2.022801, 2.022801, 0.0]}, {""species"": [{""element"": ""O"", ""occu"": 1}], ""abc"": [0.0, 0.0, 0.0], ""properties"": {""magmom"": 0.0}, ""label"": ""O"", ""xyz"": [0.0, 0.0, 0.0]}]}",LaZnPO,129,0.6490999999999998,0.0,0.0320568251200153,0.0722558156518454,0.0202935738016204
mp-11775,"{""@module"": ""pymatgen.core.structure"", ""@class"": ""Structure"", ""charge"": 0, ""lattice"": {""matrix"": [[4.328369569999999, 0.0, 0.0], [0.0, 4.32837261, -0.0], [-0.0, 0.0, 4.32837261]], ""pbc"": [true, true, true], ""a"": 4.328369569999999, ""b"": 4.32837261, ""c"": 4.32837261, ""alpha"": 90.0, ""beta"": 90.0, ""gamma"": 90.0, ""volume"": 81.09117912744904}, ""properties"": {}, ""sites"": [{""species"": [{""element"": ""Rb"", ""occu"": 1}], ""abc"": [0.5, 0.5, 0.5], ""properties"": {""magmom"": 0.003}, ""label"": ""Rb"", ""xyz"": [2.1641847849999993, 2.164186305, 2.164186305]}, {""species"": [{""element"": ""U"", ""occu"": 1}], ""abc"": [-0.0, -0.0, 0.0], ""properties"": {""magmom"": 1.086}, ""label"": ""U"", ""xyz"": [0.0, 0.0, 0.0]}, {""species"": [{""element"": ""O"", ""occu"": 1}], ""abc"": [0.0, 0.5, -0.0], ""properties"": {""magmom"": -0.045}, ""label"": ""O"", ""xyz"": [0.0, 2.164186305, 0.0]}, {""species"": [{""element"": ""O"", ""occu"": 1}], ""abc"": [0.0, 0.0, 0.5], ""properties"": {""magmom"": -0.045}, ""label"": ""O"", ""xyz"": [0.0, 0.0, 2.164186305]}, {""species"": [{""element"": ""O"", ""occu"": 1}], ""abc"": [0.5, -0.0, -0.0], ""properties"": {""magmom"": -0.045}, ""label"": ""O"", ""xyz"": [2.1641847849999993, 0.0, 0.0]}]}",RbUO3,221,0.3977000000000004,0.0,0.0126445791551318,0.0160326650371847,0.0119356456245925
mp-9200,"{""@module"": ""pymatgen.core.structure"", ""@class"": ""Structure"", ""charge"": 0, ""lattice"": {""matrix"": [[5.22438571, 0.0, 0.0], [0.0, 5.22438571, 0.0], [0.0, -0.0, 5.22438571]], ""pbc"": [true, true, true], ""a"": 5.22438571, ""b"": 5.22438571, ""c"": 5.22438571, ""alpha"": 90.0, ""beta"": 90.0, ""gamma"": 90.0, ""volume"": 142.59546003697025}, ""properties"": {}, ""sites"": [{""species"": [{""element"": ""K"", ""occu"": 1}], ""abc"": [-0.0, 0.5, 0.5], ""properties"": {""magmom"": -0.0}, ""label"": ""K"", ""xyz"": [0.0, 2.612192855, 2.612192855]}, {""species"": [{""element"": ""K"", ""occu"": 1}], ""abc"": [0.5, 0.5, -0.0], ""properties"": {""magmom"": -0.0}, ""label"": ""K"", ""xyz"": [2.612192855, 2.612192855, 0.0]}, {""species"": [{""element"": ""K"", ""occu"": 1}], ""abc"": [0.5, -0.0, 0.5], ""properties"": {""magmom"": -0.0}, ""label"": ""K"", ""xyz"": [2.612192855, 0.0, 2.612192855]}, {""species"": [{""element"": ""Au"", ""occu"": 1}], ""abc"": [-0.0, -0.0, -0.0], ""properties"": {""magmom"": -0.0}, ""label"": ""Au"", ""xyz"": [0.0, 0.0, 0.0]}, {""species"": [{""element"": ""O"", ""occu"": 1}], ""abc"": [0.5, 0.5, 0.5], ""properties"": {""magmom"": -0.0}, ""label"": ""O"", ""xyz"": [2.612192855, 2.612192855, 2.612192855]}]}",K3AuO,221,0.5615,0.0,0.4918706181530392,0.4825364592186439,0.3122048295865675
mp-569507,"{""@module"": ""pymatgen.core.structure"", ""@class"": ""Structure"", ""charge"": 0, ""lattice"": {""matrix"": [[7.81952182, -2.09129645, -0.00233666], [7.81952182, 2.09129645, -0.00233666], [7.26128382, 0.0, 3.57662116]], ""pbc"": [true, true, true], ""a"": 8.094346656476894, ""b"": 8.094346656476894, ""c"": 8.094347511489332, ""alpha"": 29.946150512440806, ""beta"": 29.946150512440806, ""gamma"": 29.94614668577094, ""volume"": 117.0474964393246}, ""properties"": {}, ""sites"": [{""species"": [{""element"": ""Tb"", ""occu"": 1}], ""abc"": [-0.0, -0.0, 0.0], ""properties"": {""magmom"": 0.0}, ""label"": ""Tb"", ""xyz"": [0.0, 0.0, 0.0]}, {""species"": [{""element"": ""Tl"", ""occu"": 1}], ""abc"": [0.5, 0.5, 0.5], ""properties"": {""magmom"": -0.0}, ""label"": ""Tl"", ""xyz"": [11.45016373, 0.0, 1.78597392]}, {""species"": [{""element"": ""Se"", ""occu"": 1}], ""abc"": [0.7349925900000001, 0.7349925900000001, 0.7349925900000001], ""properties"": {""magmom"": 0.0}, ""label"": ""Se"", ""xyz"": [16.831570991673523, 0.0, 2.625355194266506]}, {""species"": [{""element"": ""Se"", ""occu"": 1}], ""abc"": [0.26500741, 0.26500741, 0.26500741], ""properties"": {""magmom"": 0.0}, ""label"": ""Se"", ""xyz"": [6.0687564683264785, 0.0, 0.9465926457334944]}]}",TbTlSe2,166,1.2902999999999998,0.0,0.0211429098502592,0.0396874373660905,0.0139318188554745
mp-28553,"{""@module"": ""pymatgen.core.structure"", ""@class"": ""Structure"", ""charge"": 0, ""lattice"": {""matrix"": [[3.81315544, 1e-08, 0.0], [-1.90657721, 3.30228896, -0.0], [-0.0, -0.0, 14.5364298]], ""pbc"": [true, true, true], ""a"": 3.81315544, ""b"": 3.8131547349968984, ""c"": 14.5364298, ""alpha"": 90.0, ""beta"": 90.0, ""gamma"": 119.99999711709286, ""volume"": 183.04477558744142}, ""properties"": {}, ""sites"": [{""species"": [{""element"": ""Ca"", ""occu"": 1}], ""abc"": [0.333333, 0.666667, 0.08235113000000001], ""properties"": {""magmom"": 0.0}, ""label"": ""Ca"", ""xyz"": [-1.566577550127235e-06, 2.20152707742965, 1.1970914201956742]}, {""species"": [{""element"": ""Ca"", ""occu"": 1}], ""abc"": [0.333333, 0.666667, 0.41764887], ""properties"": {""magmom"": 0.0}, ""label"": ""Ca"", ""xyz"": [-1.566577550127235e-06, 2.20152707742965, 6.071123479804326]}, {""species"": [{""element"": ""Ca"", ""occu"": 1}], ""abc"": [0.666667, 0.333333, 0.58235113], ""properties"": {""magmom"": 0.0}, ""label"": ""Ca"", ""xyz"": [1.9065797965775502, 1.10076189257035, 8.465306320195674]}, {""species"": [{""element"": ""Ca"", ""occu"": 1}], ""abc"": [0.666667, 0.333333, 0.9176488700000001], ""properties"": {""magmom"": 0.0}, ""label"": ""Ca"", ""xyz"": [1.9065797965775502, 1.10076189257035, 13.339338379804328]}, {""species"": [{""element"": ""I"", ""occu"": 1}], ""abc"": [0.333333, 0.666667, 0.75], ""properties"": {""magmom"": 0.0}, ""label"": ""I"", ""xyz"": [-1.566577550127235e-06, 2.20152707742965, 10.90232235]}, {""species"": [{""element"": ""I"", ""occu"": 1}], ""abc"": [0.666667, 0.333333, 0.25], ""properties"": {""magmom"": 0.0}, ""label"": ""I"", ""xyz"": [1.9065797965775502, 1.10076189257035, 3.63410745]}, {""species"": [{""element"": ""N"", ""occu"": 1}], ""abc"": [0.0, 0.0, -0.0], ""properties"": {""magmom"": -0.0}, ""label"": ""N"", ""xyz"": [0.0, 0.0, 0.0]}, {""species"": [{""element"": ""N"", ""occu"": 1}], ""abc"": [0.0, 0.0, 0.5], ""properties"": {""magmom"": -0.0}, ""label"": ""N"", ""xyz"": [0.0, 0.0, 7.2682149]}]}",Ca2IN,194,2.3491,0.0,0.0124798608172103,0.022371865853328,0.0080607878562689
mp-11740,"{""@module"": ""pymatgen.core.structure"", ""@class"": ""Structure"", ""charge"": 0, ""lattice"": {""matrix"": [[8.30680457, -2.31039917, -0.01050682], [8.30680457, 2.31039917, -0.01050682], [7.66920255, -0.0, 3.94009934]], ""pbc"": [true, true, true], ""a"": 8.622126007092225, ""b"": 8.622126007092225, ""c"": 8.622125640582775, ""alpha"": 31.08601397227456, ""beta"": 31.08601397227456, ""gamma"": 31.086018972246315, ""volume"": 151.60938300775314}, ""properties"": {}, ""sites"": [{""species"": [{""element"": ""K"", ""occu"": 1}], ""abc"": [0.5, 0.5, 0.5], ""properties"": {""magmom"": -0.0}, ""label"": ""K"", ""xyz"": [12.141405845000001, 0.0, 1.95954285]}, {""species"": [{""element"": ""Nd"", ""occu"": 1}], ""abc"": [0.0, 0.0, -0.0], ""properties"": {""magmom"": -0.0}, ""label"": ""Nd"", ""xyz"": [0.0, 0.0, 0.0]}, {""species"": [{""element"": ""Te"", ""occu"": 1}], ""abc"": [0.26143047, 0.26143047, 0.26143047], ""properties"": {""magmom"": 0.0}, ""label"": ""Te"", ""xyz"": [6.348266873038195, 0.0, 1.0245684165212792]}, {""species"": [{""element"": ""Te"", ""occu"": 1}], ""abc"": [0.73856953, 0.73856953, 0.73856953], ""properties"": {""magmom"": 0.0}, ""label"": ""Te"", ""xyz"": [17.934544816961807, 0.0, 2.8945172834787214]}]}",KNdTe2,166,1.2715,0.0,0.0382818252864889,0.1056788577304296,0.0217081531646094
mp-1039,"{""@module"": ""pymatgen.core.structure"", ""@class"": ""Structure"", ""charge"": 0, ""lattice"": {""matrix"": [[4.5902025, -0.0, 0.0], [-2.29510176, 3.97523177, 0.0], [0.0, -0.0, 7.43780571]], ""pbc"": [true, true, true], ""a"": 4.5902025, ""b"": 4.590202578751011, ""c"": 7.43780571, ""alpha"": 90.0, ""beta"": 90.0, ""gamma"": 120.00000678320107, ""volume"": 135.71852446664587}, ""properties"": {}, ""sites"": [{""species"": [{""element"": ""Mg"", ""occu"": 1}], ""abc"": [0.333333, 0.666667, 0.99599117], ""properties"": {""magmom"": 0.0}, ""label"": ""Mg"", ""xyz"": [-2.635101419956598e-06, 2.65015583841059, 7.407988811335581]}, {""species"": [{""element"": ""Mg"", ""occu"": 1}], ""abc"": [0.666667, 0.333333, 0.49599117000000004], ""properties"": {""magmom"": 0.0}, ""label"": ""Mg"", ""xyz"": [2.2951033751014203, 1.32507593158941, 3.689085956335581]}, {""species"": [{""element"": ""Te"", ""occu"": 1}], ""abc"": [0.333333, 0.666667, 0.37400883], ""properties"": {""magmom"": -0.0}, ""label"": ""Te"", ""xyz"": [-2.635101419956598e-06, 2.65015583841059, 2.7818050113644195]}, {""species"": [{""element"": ""Te"", ""occu"": 1}], ""abc"": [0.666667, 0.333333, 0.8740088300000001], ""properties"": {""magmom"": -0.0}, ""label"": ""Te"", ""xyz"": [2.2951033751014203, 1.32507593158941, 6.5007078663644196]}]}",MgTe,186,2.3795000000000006,2.3602500000663443e-05,0.0120473646711561,0.0199429815640487,0.0078148701218073
mp-1479,"{""@module"": ""pymatgen.core.structure"", ""@class"": ""Structure"", ""charge"": 0, ""lattice"": {""matrix"": [[2.77535999, 0.0, 1.60235478], [0.92512033, 2.6166353, 1.60235478], [-0.0, -0.0, 3.20471056]], ""pbc"": [true, true, true], ""a"": 3.204709645986926, ""b"": 3.2047104017639794, ""c"": 3.20471056, ""alpha"": 60.000008688874686, ""beta"": 60.000000887576384, ""gamma"": 60.000002433478336, ""volume"": 23.272944325085422}, ""properties"": {}, ""sites"": [{""species"": [{""element"": ""B"", ""occu"": 1}], ""abc"": [-0.0, 0.0, -0.0], ""properties"": {""magmom"": -0.0}, ""label"": ""B"", ""xyz"": [0.0, 0.0, 0.0]}, {""species"": [{""element"": ""P"", ""occu"": 1}], ""abc"": [0.25, 0.25, 0.25], ""properties"": {""magmom"": -0.0}, ""label"": ""P"", ""xyz"": [0.92512008, 0.654158825, 1.60235503]}]}",BP,216,1.2562999999999995,0.0,0.0103205835730284,0.0158798683994594,0.0069352533387468
mp-1207192,"{""@module"": ""pymatgen.core.structure"", ""@class"": ""Structure"", ""charge"": 0, ""lattice"": {""matrix"": [[2.00605882, -3.47459643, 0.0], [2.00605882, 3.47459643, 0.0], [0.0, 0.0, 7.99801969]], ""pbc"": [true, true, true], ""a"": 4.012118186278731, ""b"": 4.012118186278731, ""c"": 7.99801969, ""alpha"": 90.0, ""beta"": 90.0, ""gamma"": 120.00000900808688, ""volume"": 111.4963105384556}, ""properties"": {}, ""sites"": [{""species"": [{""element"": ""Nd"", ""occu"": 1}], ""abc"": [0.333333, 0.666667, 0.25], ""properties"": {""magmom"": -0.0}, ""label"": ""Nd"", ""xyz"": [2.00605882, 1.1582011263976202, 1.9995049225]}, {""species"": [{""element"": ""Nd"", ""occu"": 1}], ""abc"": [0.666667, 0.333333, 0.75], ""properties"": {""magmom"": -0.0}, ""label"": ""Nd"", ""xyz"": [2.00605882, -1.1582011263976202, 5.9985147675]}, {""species"": [{""element"": ""H"", ""occu"": 1}], ""abc"": [0.333333, 0.666667, 0.75], ""properties"": {""magmom"": 0.0}, ""label"": ""H"", ""xyz"": [2.00605882, 1.1582011263976202, 5.9985147675]}, {""species"": [{""element"": ""H"", ""occu"": 1}], ""abc"": [0.666667, 0.333333, 0.25], ""properties"": {""magmom"": 0.0}, ""label"": ""H"", ""xyz"": [2.00605882, -1.1582011263976202, 1.9995049225]}, {""species"": [{""element"": ""Se"", ""occu"": 1}], ""abc"": [-0.0, 0.0, 0.0], ""properties"": {""magmom"": 0.0}, ""label"": ""Se"", ""xyz"": [0.0, 0.0, 0.0]}, {""species"": [{""element"": ""Se"", ""occu"": 1}], ""abc"": [-0.0, 0.0, 0.5], ""properties"": {""magmom"": 0.0}, ""label"": ""Se"", ""xyz"": [0.0, 0.0, 3.999009845]}]}",NdHSe,194,1.9350999999999996,0.0,0.0179574539930099,0.034849132210587,0.0113825433309576
mp-10748,"{""@module"": ""pymatgen.core.structure"", ""@class"": ""Structure"", ""charge"": 0, ""lattice"": {""matrix"": [[5.48655743, 0.0, 0.0], [0.0, 5.48655743, 0.0], [-0.0, -0.0, 5.48655743]], ""pbc"": [true, true, true], ""a"": 5.48655743, ""b"": 5.48655743, ""c"": 5.48655743, ""alpha"": 90.0, ""beta"": 90.0, ""gamma"": 90.0, ""volume"": 165.15806593774687}, ""properties"": {}, ""sites"": [{""species"": [{""element"": ""Ta"", ""occu"": 1}], ""abc"": [-0.0, 0.0, 0.0], ""properties"": {""magmom"": 0.0}, ""label"": ""Ta"", ""xyz"": [0.0, 0.0, 0.0]}, {""species"": [{""element"": ""Cu"", ""occu"": 1}], ""abc"": [-0.0, 0.0, 0.5], ""properties"": {""magmom"": 0.0}, ""label"": ""Cu"", ""xyz"": [0.0, 0.0, 2.743278715]}, {""species"": [{""element"": ""Cu"", ""occu"": 1}], ""abc"": [-0.0, 0.5, 0.0], ""properties"": {""magmom"": 0.0}, ""label"": ""Cu"", ""xyz"": [0.0, 2.743278715, 0.0]}, {""species"": [{""element"": ""Cu"", ""occu"": 1}], ""abc"": [0.5, 0.0, 0.0], ""properties"": {""magmom"": 0.0}, ""label"": ""Cu"", ""xyz"": [2.743278715, 0.0, 0.0]}, {""species"": [{""element"": ""S"", ""occu"": 1}], ""abc"": [0.24285373000000002, 0.75714727, 0.75714727], ""properties"": {""magmom"": -0.0}, ""label"": ""S"", ""xyz"": [1.332430936734714, 4.154131979822717, 4.154131979822717]}, {""species"": [{""element"": ""S"", ""occu"": 1}], ""abc"": [0.75714727, 0.75714727, 0.24285373000000002], ""properties"": {""magmom"": -0.0}, ""label"": ""S"", ""xyz"": [4.154131979822717, 4.154131979822717, 1.332430936734714]}, {""species"": [{""element"": ""S"", ""occu"": 1}], ""abc"": [0.75714727, 0.24285373000000002, 0.75714727], ""properties"": {""magmom"": -0.0}, ""label"": ""S"", ""xyz"": [4.154131979822717, 1.332430936734714, 4.154131979822717]}, {""species"": [{""element"": ""S"", ""occu"": 1}], ""abc"": [0.24285373000000002, 0.24285373000000002, 0.24285373000000002], ""properties"": {""magmom"": -0.0}, ""label"": ""S"", ""xyz"": [1.332430936734714, 1.332430936734714, 1.332430936734714]}]}",TaCu3S4,215,1.9106,0.0,0.0184069817393105,0.0352963848893473,0.0121555196443273
mp-11019,"{""@module"": ""pymatgen.core.structure"", ""@class"": ""Structure"", ""charge"": 0, ""lattice"": {""matrix"": [[2.97185305, 0.0, -0.0], [-1.48592753, 2.57370075, -0.0], [-0.0, 0.0, 11.44881994]], ""pbc"": [true, true, true], ""a"": 2.97185305, ""b"": 2.971853996239126, ""c"": 11.44881994, ""alpha"": 90.0, ""beta"": 90.0, ""gamma"": 120.00001184073263, ""volume"": 87.56813597285675}, ""properties"": {}, ""sites"": [{""species"": [{""element"": ""Ga"", ""occu"": 1}], ""abc"": [-0.0, -0.0, -0.0], ""properties"": {""magmom"": 0.0}, ""label"": ""Ga"", ""xyz"": [0.0, 0.0, 0.0]}, {""species"": [{""element"": ""Ga"", ""occu"": 1}], ""abc"": [-0.0, -0.0, 0.5], ""properties"": {""magmom"": 0.0}, ""label"": ""Ga"", ""xyz"": [0.0, 0.0, 5.72440997]}, {""species"": [{""element"": ""Cu"", ""occu"": 1}], ""abc"": [0.666667, 0.333333, 0.75], ""properties"": {""magmom"": 0.0}, ""label"": ""Cu"", ""xyz"": [1.48592767592686, 0.85789939209975, 8.586614955]}, {""species"": [{""element"": ""Cu"", ""occu"": 1}], ""abc"": [0.333333, 0.666667, 0.25], ""properties"": {""magmom"": 0.0}, ""label"": ""Cu"", ""xyz"": [-2.1559268600368497e-06, 1.71580135790025, 2.862204985]}, {""species"": [{""element"": ""O"", ""occu"": 1}], ""abc"": [0.333333, 0.666667, 0.4116898], ""properties"": {""magmom"": -0.0}, ""label"": ""O"", ""xyz"": [-2.1559268600368497e-06, 1.71580135790025, 4.713362391334612]}, {""species"": [{""element"": ""O"", ""occu"": 1}], ""abc"": [0.666667, 0.333333, 0.9116898], ""properties"": {""magmom"": -0.0}, ""label"": ""O"", ""xyz"": [1.48592767592686, 0.85789939209975, 10.437772361334613]}, {""species"": [{""element"": ""O"", ""occu"": 1}], ""abc"": [0.333333, 0.666667, 0.088310199999999], ""properties"": {""magmom"": -0.0}, ""label"": ""O"", ""xyz"": [-2.1559268600368497e-06, 1.71580135790025, 1.0110475786653765]}, {""species"": [{""element"": ""O"", ""occu"": 1}], ""abc"": [0.666667, 0.333333, 0.5883102], ""properties"": {""magmom"": -0.0}, ""label"": ""O"", ""xyz"": [1.48592767592686, 0.85789939209975, 6.735457548665388]}]}",GaCuO2,194,0.7845999999999997,0.0,0.0140662752816123,0.0294219910564425,0.0084776685903637
mp-23177,"{""@module"": ""pymatgen.core.structure"", ""@class"": ""Structure"", ""charge"": 0, ""lattice"": {""matrix"": [[4.42434754, -0.000309, -1.70936445], [-0.66122177, 4.37465914, -1.70936446], [-0.00484567, -0.00563265, 6.56366449]], ""pbc"": [true, true, true], ""a"": 4.743076857179193, ""b"": 4.743077447967571, ""c"": 6.563668695520115, ""alpha"": 111.16652370579524, ""beta"": 111.16652698364678, ""gamma"": 90.01247912854728, ""volume"": 126.95326347785603}, ""properties"": {}, ""sites"": [{""species"": [{""element"": ""Hg"", ""occu"": 1}], ""abc"": [0.8849608600000001, 0.8849608600000001, 0.76992729], ""properties"": {""magmom"": -0.0}, ""label"": ""Hg"", ""xyz"": [3.3264882041360284, 3.8667919308855025, 2.0281031369544693]}, {""species"": [{""element"": ""Hg"", ""occu"": 1}], ""abc"": [0.11503914, 0.11503914, 0.23007371000000001], ""properties"": {""magmom"": -0.0}, ""label"": ""Hg"", ""xyz"": [0.4317918910183022, 0.5019255534818481, 1.1168390067100205]}, {""species"": [{""element"": ""Br"", ""occu"": 1}], ""abc"": [0.6567304700000001, 0.6567304700000001, 0.31300601], ""properties"": {""magmom"": 0.0}, ""label"": ""Br"", ""xyz"": [2.4698426317687354, 2.8710059700845396, -0.1907170108733034]}, {""species"": [{""element"": ""Br"", ""occu"": 1}], ""abc"": [0.34326953, 0.34326953, 0.68699299], ""properties"": {""magmom"": 0.0}, ""label"": ""Br"", ""xyz"": [1.2884374730769348, 1.4977115255481108, 3.3356460272088126]}]}",HgBr,139,2.3415,0.0,0.0177241999756349,0.0326381427315121,0.0112838418103201