id,structure_json,formula,spacegroup,bandgap,energy_above_hull,k_1064,k_755,k_1500
mp-697030,"{""@module"": ""pymatgen.core.structure"", ""@class"": ""Structure"", ""charge"": 0, ""lattice"": {""matrix"": [[3.29755622, 3.29755622, -0.0], [-0.0, 3.29755622, 3.29755622], [3.29755622, 0.0, 3.29755622]], ""pbc"": [true, true, true], ""a"": 4.663448729011757, ""b"": 4.663448729011757, ""c"": 4.663448729011757, ""alpha"": 59.99999999999999, ""beta"": 59.99999999999999, ""gamma"": 59.99999999999999, ""volume"": 71.71444163241284}, ""properties"": {}, ""sites"": [{""species"": [{""element"": ""Mg"", ""occu"": 1}], ""abc"": [0.75, 0.75, 0.75], ""properties"": {""magmom"": -0.0}, ""label"": ""Mg"", ""xyz"": [4.94633433, 4.94633433, 4.94633433]}, {""species"": [{""element"": ""Mg"", ""occu"": 1}], ""abc"": [0.25, 0.25, 0.25], ""properties"": {""magmom"": -0.0}, ""label"": ""Mg"", ""xyz"": [1.64877811, 1.64877811, 1.64877811]}, {""species"": [{""element"": ""H"", ""occu"": 1}], ""abc"": [0.25304118000000003, 0.74695882, 0.74695882], ""properties"": {""magmom"": 0.0}, ""label"": ""H"", ""xyz"": [3.29755622, 3.29755622, 4.926277405949721]}, {""species"": [{""element"": ""H"", ""occu"": 1}], ""abc"": [0.25304118000000003, 0.25304118000000003, 0.74695882], ""properties"": {""magmom"": 0.0}, ""label"": ""H"", ""xyz"": [3.29755622, 1.6688350340502796, 3.29755622]}, {""species"": [{""element"": ""H"", ""occu"": 1}], ""abc"": [0.25304118000000003, 0.74695882, 0.25304118000000003], ""properties"": {""magmom"": 0.0}, ""label"": ""H"", ""xyz"": [1.6688350340502796, 3.29755622, 3.29755622]}, {""species"": [{""element"": ""H"", ""occu"": 1}], ""abc"": [0.74695882, 0.25304118000000003, 0.25304118000000003], ""properties"": {""magmom"": 0.0}, ""label"": ""H"", ""xyz"": [3.29755622, 3.29755622, 1.6688350340502796]}, {""species"": [{""element"": ""H"", ""occu"": 1}], ""abc"": [0.74695882, 0.74695882, 0.25304118000000003], ""properties"": {""magmom"": 0.0}, ""label"": ""H"", ""xyz"": [3.29755622, 4.926277405949721, 3.29755622]}, {""species"": [{""element"": ""H"", ""occu"": 1}], ""abc"": [0.74695882, 0.25304118000000003, 0.74695882], ""properties"": {""magmom"": 0.0}, ""label"": ""H"", ""xyz"": [4.926277405949721, 3.29755622, 3.29755622]}, {""species"": [{""element"": ""Ru"", ""occu"": 1}], ""abc"": [0.0, 0.0, -0.0], ""properties"": {""magmom"": -0.0}, ""label"": ""Ru"", ""xyz"": [0.0, 0.0, 0.0]}]}",Mg2H6Ru,225,3.0189,0.0,0.0057423205301403,0.0089498199655965,0.0039836206321306
mp-643243,"{""@module"": ""pymatgen.core.structure"", ""@class"": ""Structure"", ""charge"": 0, ""lattice"": {""matrix"": [[4.4861747, 4.4861747, 0.0], [-0.0, 4.4861747, 4.4861747], [4.4861747, 0.0, 4.4861747]], ""pbc"": [true, true, true], ""a"": 6.344409103915051, ""b"": 6.344409103915051, ""c"": 6.344409103915051, ""alpha"": 60.00000000000001, ""beta"": 60.00000000000001, ""gamma"": 60.00000000000001, ""volume"": 180.57538151573664}, ""properties"": {}, ""sites"": [{""species"": [{""element"": ""Cs"", ""occu"": 1}], ""abc"": [0.75, 0.75, 0.75], ""properties"": {""magmom"": 0.0}, ""label"": ""Cs"", ""xyz"": [6.729262050000001, 6.729262050000001, 6.729262050000001]}, {""species"": [{""element"": ""Cs"", ""occu"": 1}], ""abc"": [0.25, 0.25, 0.25], ""properties"": {""magmom"": 0.0}, ""label"": ""Cs"", ""xyz"": [2.24308735, 2.24308735, 2.24308735]}, {""species"": [{""element"": ""H"", ""occu"": 1}], ""abc"": [0.18313823, 0.81686177, 0.81686177], ""properties"": {""magmom"": -0.0}, ""label"": ""H"", ""xyz"": [4.4861747, 4.4861747, 7.329169211942439]}, {""species"": [{""element"": ""H"", ""occu"": 1}], ""abc"": [0.18313823, 0.18313823, 0.81686177], ""properties"": {""magmom"": -0.0}, ""label"": ""H"", ""xyz"": [4.4861747, 1.6431801880575623, 4.4861747]}, {""species"": [{""element"": ""H"", ""occu"": 1}], ""abc"": [0.18313823, 0.81686177, 0.18313823], ""properties"": {""magmom"": -0.0}, ""label"": ""H"", ""xyz"": [1.6431801880575623, 4.4861747, 4.4861747]}, {""species"": [{""element"": ""H"", ""occu"": 1}], ""abc"": [0.81686177, 0.18313823, 0.18313823], ""properties"": {""magmom"": -0.0}, ""label"": ""H"", ""xyz"": [4.4861747, 4.4861747, 1.6431801880575623]}, {""species"": [{""element"": ""H"", ""occu"": 1}], ""abc"": [0.81686177, 0.81686177, 0.18313823], ""properties"": {""magmom"": -0.0}, ""label"": ""H"", ""xyz"": [4.4861747, 7.329169211942439, 4.4861747]}, {""species"": [{""element"": ""H"", ""occu"": 1}], ""abc"": [0.81686177, 0.18313823, 0.81686177], ""properties"": {""magmom"": -0.0}, ""label"": ""H"", ""xyz"": [7.329169211942439, 4.4861747, 4.4861747]}, {""species"": [{""element"": ""Pt"", ""occu"": 1}], ""abc"": [-0.0, 0.0, -0.0], ""properties"": {""magmom"": 0.0}, ""label"": ""Pt"", ""xyz"": [0.0, 0.0, 0.0]}]}",Cs2H6Pt,225,3.9142,0.0,0.0032433945461664,0.0050442012163779,0.0022563794280466
mp-22958,"{""@module"": ""pymatgen.core.structure"", ""@class"": ""Structure"", ""charge"": 0, ""lattice"": {""matrix"": [[4.38068464, 0.03189449, 0.34045774], [0.31748156, 4.36928164, 0.34045774], [0.034046599999999004, 0.03189449, 4.39376226]], ""pbc"": [true, true, true], ""a"": 4.394010314775126, ""b"": 4.394010476012435, ""c"": 4.394009925667468, ""alpha"": 85.10928318798958, ""beta"": 85.1092845005652, ""gamma"": 85.10928800253501, ""volume"": 83.95967616702733}, ""properties"": {}, ""sites"": [{""species"": [{""element"": ""K"", ""occu"": 1}], ""abc"": [0.01559889, 0.01559889, 0.01559889], ""properties"": {""magmom"": -0.0}, ""label"": ""K"", ""xyz"": [0.07381726692379201, 0.06915098096361179, 0.0791593398517086]}, {""species"": [{""element"": ""Br"", ""occu"": 1}], ""abc"": [0.50568188, 0.50568188, 0.50568188], ""properties"": {""magmom"": -0.0}, ""label"": ""Br"", ""xyz"": [2.392994265264064, 2.241723485294365, 2.5661725799573514]}, {""species"": [{""element"": ""O"", ""occu"": 1}], ""abc"": [0.12570132, 0.56900846, 0.56900846], ""properties"": {""magmom"": -0.0}, ""label"": ""O"", ""xyz"": [0.7506803387199579, 2.508315631413787, 2.7366072188234174]}, {""species"": [{""element"": ""O"", ""occu"": 1}], ""abc"": [0.56900846, 0.56900846, 0.12570132], ""properties"": {""magmom"": -0.0}, ""label"": ""O"", ""xyz"": [2.6775760168475644, 2.508315631413787, 0.939748384513144]}, {""species"": [{""element"": ""O"", ""occu"": 1}], ""abc"": [0.56900846, 0.12570132, 0.56900846], ""properties"": {""magmom"": -0.0}, ""label"": ""O"", ""xyz"": [2.5519272753539495, 0.5855209388745355, 2.7366072188234174]}]}",KBrO3,160,3.8544,0.0,0.0033376883060496,0.0051225293719696,0.0022992782216139
mp-550820,"{""@module"": ""pymatgen.core.structure"", ""@class"": ""Structure"", ""charge"": 0, ""lattice"": {""matrix"": [[0.379255, 1.982034, -3.411971], [0.379255, -1.982034, -3.411971], [-9.979115, 0.0, -3.411971]], ""pbc"": [true, true, true], ""a"": 3.9640685207274107, ""b"": 3.9640685207274107, ""c"": 10.546292347932804, ""alpha"": 79.1676132741046, ""beta"": 79.1676132741046, ""gamma"": 59.99999130916956, ""volume"": 140.0999069865255}, ""properties"": {}, ""sites"": [{""species"": [{""element"": ""Sm"", ""occu"": 1}], ""abc"": [0.380702999999999, 0.380702999999999, 0.857891], ""properties"": {""magmom"": 0.0}, ""label"": ""Sm"", ""xyz"": [-8.272225913935, 0.0, -5.524994404386993]}, {""species"": [{""element"": ""Sm"", ""occu"": 1}], ""abc"": [0.619297, 0.619297, 0.14210899999999901], ""properties"": {""magmom"": 0.0}, ""label"": ""Sm"", ""xyz"": [-0.9483790860649901, 0.0, -4.710918595612997]}, {""species"": [{""element"": ""Zn"", ""occu"": 1}], ""abc"": [0.196291, 0.196291, 0.411126999999999], ""properties"": {""magmom"": 0.0}, ""label"": ""Zn"", ""xyz"": [-3.9537949261949907, 0.0, -2.7422318004389963]}, {""species"": [{""element"": ""Zn"", ""occu"": 1}], ""abc"": [0.80371, 0.80371, 0.58887], ""properties"": {""magmom"": 0.0}, ""label"": ""Zn"", ""xyz"": [-5.26677937795, 0.0, -7.49367778759]}, {""species"": [{""element"": ""P"", ""occu"": 1}], ""abc"": [0.113178, 0.113178, 0.660466], ""properties"": {""magmom"": -0.0}, ""label"": ""P"", ""xyz"": [-6.50501952281, 0.0, -3.025810946162]}, {""species"": [{""element"": ""P"", ""occu"": 1}], ""abc"": [0.886822, 0.886822, 0.339534], ""properties"": {""magmom"": -0.0}, ""label"": ""P"", ""xyz"": [-2.71558547719, 0.0, -7.210102053838]}, {""species"": [{""element"": ""O"", ""occu"": 1}], ""abc"": [0.694809, 0.694809, 0.915573], ""properties"": {""magmom"": 0.0}, ""label"": ""O"", ""xyz"": [-8.609588683305, 0.0, -7.865244841460999]}, {""species"": [{""element"": ""O"", ""occu"": 1}], ""abc"": [0.305191, 0.305191, 0.084427], ""properties"": {""magmom"": 0.0}, ""label"": ""O"", ""xyz"": [-0.611016316695, 0.0, -2.370668158539]}]}",SmZnPO,166,1.3336000000000006,0.0,0.0274533960606851,0.0635154575025858,0.0167472436883028
mp-1232332,"{""@module"": ""pymatgen.core.structure"", ""@class"": ""Structure"", ""charge"": 0, ""lattice"": {""matrix"": [[-2.809656, 2.809656, 5.5550049999999995], [2.809656, -2.809656, 5.5550049999999995], [2.809656, 2.809656, -5.5550049999999995]], ""pbc"": [true, true, true], ""a"": 6.829818022956174, ""b"": 6.829818022956174, ""c"": 6.829818022956174, ""alpha"": 131.41679192823514, ""beta"": 131.41679192823514, ""gamma"": 71.15171511778871, ""volume"": 175.40854503116267}, ""properties"": {}, ""sites"": [{""species"": [{""element"": ""Zn"", ""occu"": 1}], ""abc"": [0.75, 0.25, 0.5], ""properties"": {""magmom"": -0.0}, ""label"": ""Zn"", ""xyz"": [2.220446049250313e-16, 2.8096559999999995, 2.7775024999999998]}, {""species"": [{""element"": ""Cu"", ""occu"": 1}], ""abc"": [0.0, 0.0, 0.0], ""properties"": {""magmom"": 0.0}, ""label"": ""Cu"", ""xyz"": [0.0, 0.0, 0.0]}, {""species"": [{""element"": ""Cu"", ""occu"": 1}], ""abc"": [0.25, 0.75, 0.5], ""properties"": {""magmom"": 0.0}, ""label"": ""Cu"", ""xyz"": [2.8096559999999995, 2.220446049250313e-16, 2.7775024999999998]}, {""species"": [{""element"": ""Si"", ""occu"": 1}], ""abc"": [0.5, 0.5, 0.0], ""properties"": {""magmom"": 0.0}, ""label"": ""Si"", ""xyz"": [0.0, 0.0, 5.5550049999999995]}, {""species"": [{""element"": ""Se"", ""occu"": 1}], ""abc"": [0.142865, 0.133657, 0.518135], ""properties"": {""magmom"": 0.0}, ""label"": ""Se"", ""xyz"": [1.429909799112, 1.4816524240079998, -1.3421614230649999]}, {""species"": [{""element"": ""Se"", ""occu"": 1}], ""abc"": [0.615522, 0.62473, 0.481865], ""properties"": {""magmom"": 0.0}, ""label"": ""Se"", ""xyz"": [1.379746200888, 1.3280035759920001, 4.212843576935]}, {""species"": [{""element"": ""Se"", ""occu"": 1}], ""abc"": [0.866343, 0.384478, 0.009208], ""properties"": {""magmom"": 0.0}, ""label"": ""Se"", ""xyz"": [-1.3280035759920001, 1.379746200888, 6.897166423064999]}, {""species"": [{""element"": ""Se"", ""occu"": 1}], ""abc"": [0.37527000000000005, 0.857135, 0.990792], ""properties"": {""magmom"": 0.0}, ""label"": ""Se"", ""xyz"": [4.137659575992, 1.429909799112, 1.3421614230649999]}]}",ZnCu2SiSe4,82,0.5623999999999998,0.0,0.3305049272661928,0.4878126246027699,0.1340327330357862
mp-1500,"{""@module"": ""pymatgen.core.structure"", ""@class"": ""Structure"", ""charge"": 0, ""lattice"": {""matrix"": [[3.95062927, -1e-08, 2.28089629], [1.3168760800000001, 3.72468938, 2.28089629], [-2e-08, -1e-08, 4.5617946400000005]], ""pbc"": [true, true, true], ""a"": 4.5617934537544, ""b"": 4.561793668426567, ""c"": 4.5617946400000005, ""alpha"": 60.00000809484682, ""beta"": 60.00000658720688, ""gamma"": 60.00001021135136, ""volume"": 67.12620118023264}, ""properties"": {}, ""sites"": [{""species"": [{""element"": ""Ba"", ""occu"": 1}], ""abc"": [-0.0, -0.0, 0.0], ""properties"": {""magmom"": -0.0}, ""label"": ""Ba"", ""xyz"": [0.0, 0.0, 0.0]}, {""species"": [{""element"": ""S"", ""occu"": 1}], ""abc"": [0.5, 0.5, 0.5], ""properties"": {""magmom"": 0.0}, ""label"": ""S"", ""xyz"": [2.6337526650000003, 1.86234468, 4.5617936100000005]}]}",BaS,225,2.1751000000000005,0.0,0.0100219162207347,0.0189733407511035,0.0066542427712608
mp-7939,"{""@module"": ""pymatgen.core.structure"", ""@class"": ""Structure"", ""charge"": 0, ""lattice"": {""matrix"": [[3.57450499, 1e-08, -0.0], [-1.78725198, 3.09561238, 0.0], [-0.0, -0.0, 14.80995926]], ""pbc"": [true, true, true], ""a"": 3.57450499, ""b"": 3.574504951349653, ""c"": 14.80995926, ""alpha"": 90.0, ""beta"": 90.0, ""gamma"": 119.99999066540983, ""volume"": 163.87637439545435}, ""properties"": {}, ""sites"": [{""species"": [{""element"": ""Na"", ""occu"": 1}], ""abc"": [-0.0, -0.0, -0.0], ""properties"": {""magmom"": 0.0}, ""label"": ""Na"", ""xyz"": [0.0, 0.0, 0.0]}, {""species"": [{""element"": ""Na"", ""occu"": 1}], ""abc"": [-0.0, -0.0, 0.5], ""properties"": {""magmom"": 0.0}, ""label"": ""Na"", ""xyz"": [0.0, 0.0, 7.40497963]}, {""species"": [{""element"": ""Nb"", ""occu"": 1}], ""abc"": [0.0, -0.0, 0.25], ""properties"": {""magmom"": 0.0}, ""label"": ""Nb"", ""xyz"": [0.0, 0.0, 3.702489815]}, {""species"": [{""element"": ""Nb"", ""occu"": 1}], ""abc"": [-0.0, 0.0, 0.75], ""properties"": {""magmom"": 0.0}, ""label"": ""Nb"", ""xyz"": [0.0, 0.0, 11.107469445]}, {""species"": [{""element"": ""Se"", ""occu"": 1}], ""abc"": [0.333333, 0.666667, 0.13882767000000001], ""properties"": {""magmom"": 0.0}, ""label"": ""Se"", ""xyz"": [-1.4439189899295712e-06, 2.06374262187079, 2.056032136860724]}, {""species"": [{""element"": ""Se"", ""occu"": 1}], ""abc"": [0.333333, 0.666667, 0.36117233], ""properties"": {""magmom"": 0.0}, ""label"": ""Se"", ""xyz"": [-1.4439189899295712e-06, 2.06374262187079, 5.348947493139275]}, {""species"": [{""element"": ""Se"", ""occu"": 1}], ""abc"": [0.666667, 0.333333, 0.63882767], ""properties"": {""magmom"": 0.0}, ""label"": ""Se"", ""xyz"": [1.7872544539189903, 1.0318697681292102, 9.461011766860723]}, {""species"": [{""element"": ""Se"", ""occu"": 1}], ""abc"": [0.666667, 0.333333, 0.86117233], ""properties"": {""magmom"": 0.0}, ""label"": ""Se"", ""xyz"": [1.7872544539189903, 1.0318697681292102, 12.753927123139276]}]}",NaNbSe2,194,0.4980000000000002,0.0,0.3504258236362097,1.61052669380978,0.0876047220592287
mp-569178,"{""@module"": ""pymatgen.core.structure"", ""@class"": ""Structure"", ""charge"": 0, ""lattice"": {""matrix"": [[7.83008144, -2.07352207, 0.0058747800000000005], [7.83008144, 2.07352207, 0.0058747800000000005], [7.27832112, -0.0, 3.55468247]], ""pbc"": [true, true, true], ""a"": 8.09998170645154, ""b"": 8.09998170645154, ""c"": 8.099983073338077, ""alpha"": 29.664616164467947, ""beta"": 29.664616164467947, ""gamma"": 29.664623888663694, ""volume"": 115.24923759424736}, ""properties"": {}, ""sites"": [{""species"": [{""element"": ""Ho"", ""occu"": 1}], ""abc"": [-0.0, -0.0, 0.0], ""properties"": {""magmom"": -0.0}, ""label"": ""Ho"", ""xyz"": [0.0, 0.0, 0.0]}, {""species"": [{""element"": ""Tl"", ""occu"": 1}], ""abc"": [0.5, 0.5, 0.5], ""properties"": {""magmom"": -0.0}, ""label"": ""Tl"", ""xyz"": [11.469242, 0.0, 1.783216015]}, {""species"": [{""element"": ""Se"", ""occu"": 1}], ""abc"": [0.73424423, 0.73424423, 0.73424423], ""properties"": {""magmom"": 0.0}, ""label"": ""Se"", ""xyz"": [16.842449521947323, 0.0, 2.618632139714687]}, {""species"": [{""element"": ""Se"", ""occu"": 1}], ""abc"": [0.26575577, 0.26575577, 0.26575577], ""properties"": {""magmom"": 0.0}, ""label"": ""Se"", ""xyz"": [6.0960344780526805, 0.0, 0.9477998902853131]}]}",HoTlSe2,166,1.2782,0.0,0.0210384284934818,0.0391077362315999,0.0136902675504358
mp-961685,"{""@module"": ""pymatgen.core.structure"", ""@class"": ""Structure"", ""charge"": 0, ""lattice"": {""matrix"": [[4.23854652, -1e-08, 2.44712566], [1.41284816, 3.99614034, 2.44712566], [-1e-08, -0.0, 4.89425333]], ""pbc"": [true, true, true], ""a"": 4.894251791442135, ""b"": 4.8942518872674645, ""c"": 4.89425333, ""alpha"": 60.000003873123525, ""beta"": 60.000003303495276, ""gamma"": 60.000010842919856, ""volume"": 82.89801505073483}, ""properties"": {}, ""sites"": [{""species"": [{""element"": ""Na"", ""occu"": 1}], ""abc"": [0.5, 0.5, 0.5], ""properties"": {""magmom"": -0.0}, ""label"": ""Na"", ""xyz"": [2.825697335, 1.9980701650000001, 4.894252325]}, {""species"": [{""element"": ""Ca"", ""occu"": 1}], ""abc"": [0.0, 0.0, -0.0], ""properties"": {""magmom"": 0.0}, ""label"": ""Ca"", ""xyz"": [0.0, 0.0, 0.0]}, {""species"": [{""element"": ""As"", ""occu"": 1}], ""abc"": [0.25, 0.25, 0.25], ""properties"": {""magmom"": -0.0}, ""label"": ""As"", ""xyz"": [1.4128486675, 0.9990350825000001, 2.4471261625]}]}",NaCaAs,216,1.5713,0.0,0.033744147458957,0.1492144386566838,0.019809112839694
mp-1222263,"{""@module"": ""pymatgen.core.structure"", ""@class"": ""Structure"", ""charge"": 0, ""lattice"": {""matrix"": [[3.75260979, 0.0, -0.0], [0.0, 3.75260979, -0.0], [0.0, -0.0, 5.26901473]], ""pbc"": [true, true, true], ""a"": 3.75260979, ""b"": 3.75260979, ""c"": 5.26901473, ""alpha"": 90.0, ""beta"": 90.0, ""gamma"": 90.0, ""volume"": 74.19868819254614}, ""properties"": {}, ""sites"": [{""species"": [{""element"": ""Lu"", ""occu"": 1}], ""abc"": [-0.0, 0.0, -0.0], ""properties"": {""magmom"": -0.0}, ""label"": ""Lu"", ""xyz"": [0.0, 0.0, 0.0]}, {""species"": [{""element"": ""Pa"", ""occu"": 1}], ""abc"": [0.5, 0.5, 0.5], ""properties"": {""magmom"": -0.0}, ""label"": ""Pa"", ""xyz"": [1.876304895, 1.876304895, 2.634507365]}, {""species"": [{""element"": ""O"", ""occu"": 1}], ""abc"": [0.5, 0.0, 0.74636729], ""properties"": {""magmom"": 0.0}, ""label"": ""O"", ""xyz"": [1.876304895, 0.0, 3.932620245000182]}, {""species"": [{""element"": ""O"", ""occu"": 1}], ""abc"": [-0.0, 0.5, 0.25363271], ""properties"": {""magmom"": 0.0}, ""label"": ""O"", ""xyz"": [0.0, 1.876304895, 1.3363944849998184]}, {""species"": [{""element"": ""O"", ""occu"": 1}], ""abc"": [0.5, 0.0, 0.25363271], ""properties"": {""magmom"": 0.0}, ""label"": ""O"", ""xyz"": [1.876304895, 0.0, 1.3363944849998184]}, {""species"": [{""element"": ""O"", ""occu"": 1}], ""abc"": [-0.0, 0.5, 0.74636729], ""properties"": {""magmom"": 0.0}, ""label"": ""O"", ""xyz"": [0.0, 1.876304895, 3.932620245000182]}]}",LuPaO4,123,2.5169,0.0,0.006250993418491,0.0102999107194037,0.0042618693665384